[Molden Format]
made by pyscf v[2.2.1]
[Atoms] (AU)
C   1   6    -2.10460688218935    -0.18502308485617    -1.53413635970565
C   2   6    -0.21837675095474    -2.05587084543682    -1.63597370055847
C   3   6    -1.85075997187653     1.79888698975722     0.09911613523344
C   4   6     2.10460688218935     0.18502308485617     1.53413635970565
C   5   6     0.21837675095474     2.05587084543682     1.63597370055847
C   6   6     1.85075997187653    -1.79888698975722    -0.09911613523344
C   7   6    -7.19414956169670    -0.18502308485617    12.04233642057459
C   8   6    -5.30793832772333    -2.05587084543682    11.94051797698303
C   9   6    -6.94032154864512     1.79888698975722    13.67558891551369
C   10   6    -2.98493579731799     0.18502308485617    15.11062803724715
C   11   6    -4.87116592855261     2.05587084543682    15.21244648083871
C   12   6    -3.23878270763081    -1.79888698975722    13.47737554230806
C   13   6    -2.10460688218935    10.09433114232795    -1.53413635970565
C   14   6    -0.21837675095474     8.22348338174729    -1.63597370055847
C   15   6    -1.85075997187653    12.07824121694133     0.09911613523344
C   16   6     2.10460688218935    10.46437731204028     1.53413635970565
C   17   6     0.21837675095474    12.33522507262093     1.63597370055847
C   18   6     1.85075997187653     8.48046723742689    -0.09911613523344
C   19   6    -7.19414956169670    10.09433114232795    12.04233642057459
C   20   6    -5.30793832772333     8.22348338174729    11.94051797698303
C   21   6    -6.94032154864512    12.07824121694133    13.67558891551369
C   22   6    -2.98493579731799    10.46437731204028    15.11062803724715
C   23   6    -4.87116592855261    12.33522507262093    15.21244648083871
C   24   6    -3.23878270763081     8.48046723742689    13.47737554230806
C   25   6     8.33046077765892    -0.18502308485617    -1.53413635970565
C   26   6    10.21669090889353    -2.05587084543682    -1.63597370055847
C   27   6     8.58430768797174     1.79888698975722     0.09911613523344
C   28   6    12.53967454203763     0.18502308485617     1.53413635970565
C   29   6    10.65344441080301     2.05587084543682     1.63597370055847
C   30   6    12.28582763172480    -1.79888698975722    -0.09911613523344
C   31   6     3.24091809815157    -0.18502308485617    12.04233642057459
C   32   6     5.12712933212494    -2.05587084543682    11.94051797698303
C   33   6     3.49474611120315     1.79888698975722    13.67558891551369
C   34   6     7.45013186253028     0.18502308485617    15.11062803724715
C   35   6     5.56390173129567     2.05587084543682    15.21244648083871
C   36   6     7.19628495221746    -1.79888698975722    13.47737554230806
C   37   6     8.33046077765892    10.09433114232795    -1.53413635970565
C   38   6    10.21669090889353     8.22348338174729    -1.63597370055847
C   39   6     8.58430768797174    12.07824121694133     0.09911613523344
C   40   6    12.53967454203763    10.46437731204028     1.53413635970565
C   41   6    10.65344441080301    12.33522507262093     1.63597370055847
C   42   6    12.28582763172480     8.48046723742689    -0.09911613523344
C   43   6     3.24091809815157    10.09433114232795    12.04233642057459
C   44   6     5.12712933212494     8.22348338174729    11.94051797698303
C   45   6     3.49474611120315    12.07824121694133    13.67558891551369
C   46   6     7.45013186253028    10.46437731204028    15.11062803724715
C   47   6     5.56390173129567    12.33522507262093    15.21244648083871
C   48   6     7.19628495221746     8.48046723742689    13.47737554230806
C   49   6    -0.44017390619494     4.95465402873589     8.32239164710702
C   50   6    -2.32638514016831     3.08380626815523     8.42421009069859
C   51   6    -0.69400191924652     6.93856410334927     6.68913915216793
C   52   6    -4.64938767057365     5.32470019844822     5.25410003043447
C   53   6    -2.76315753933903     7.19554795902888     5.15228158684290
C   54   6    -4.39554076026083     3.34079012383484     6.88735252537356
C   55   6     9.99489375365333     4.95465402873589     8.32239164710702
C   56   6     8.10868251967996     3.08380626815523     8.42421009069859
C   57   6     9.74106574060175     6.93856410334927     6.68913915216793
C   58   6     5.78567998927462     5.32470019844822     5.25410003043447
C   59   6     7.67191012050924     7.19554795902888     5.15228158684290
C   60   6     6.03952689958745     3.34079012383484     6.88735252537356
H   61   1    -3.51687480412181    -0.29912474825740    -2.57410933783754
H   62   1    -0.37257840271925    -3.43331111489354    -2.71665137941349
H   63   1    -3.12109056459290     3.01082504522453     0.16969740598594
H   64   1     3.51687480412181     0.29912474825740     2.57410933783754
H   65   1     0.37257840271925     3.43331111489354     2.71665137941349
H   66   1     3.12109056459290    -3.01082504522453    -0.16969740598594
H   67   1    -8.60643638089040    -0.29912474825740    11.00238233970395
H   68   1    -5.46212108222659    -3.43331111489354    10.85982140086676
H   69   1    -8.21063324410025     3.01082504522453    13.74618908352743
H   70   1    -1.57266787538554     0.29912474825740    16.15058211811779
H   71   1    -4.71696427678810     3.43331111489354    16.29312415969374
H   72   1    -1.96845211491444    -3.01082504522453    13.40677537429431
H   73   1    -3.51687480412181     9.98022947892671    -2.57410933783754
H   74   1    -0.37257840271925     6.84604311229057    -2.71665137941349
H   75   1    -3.12109056459290    13.29017927240864     0.16969740598594
H   76   1     3.51687480412181    10.57847897544151     2.57410933783754
H   77   1     0.37257840271925    13.71266534207765     2.71665137941349
H   78   1     3.12109056459290     7.26852918195958    -0.16969740598594
H   79   1    -8.60643638089040     9.98022947892671    11.00238233970395
H   80   1    -5.46212108222659     6.84604311229057    10.85982140086676
H   81   1    -8.21063324410025    13.29017927240864    13.74618908352743
H   82   1    -1.57266787538554    10.57847897544151    16.15058211811779
H   83   1    -4.71696427678810    13.71266534207765    16.29312415969374
H   84   1    -1.96845211491444     7.26852918195958    13.40677537429431
H   85   1     6.91817395846522    -0.29912474825740    -2.57410933783754
H   86   1    10.06248925712902    -3.43331111489354    -2.71665137941349
H   87   1     7.31397709525537     3.01082504522453     0.16969740598594
H   88   1    13.95194246397008     0.29912474825740     2.57410933783754
H   89   1    10.80764606256752     3.43331111489354     2.71665137941349
H   90   1    13.55615822444117    -3.01082504522453    -0.16969740598594
H   91   1     1.82863127895787    -0.29912474825740    11.00238233970395
H   92   1     4.97294657762168    -3.43331111489354    10.85982140086676
H   93   1     2.22443441574803     3.01082504522453    13.74618908352743
H   94   1     8.86239978446273     0.29912474825740    16.15058211811779
H   95   1     5.71810338306017     3.43331111489354    16.29312415969374
H   96   1     8.46661554493383    -3.01082504522453    13.40677537429431
H   97   1     6.91817395846522     9.98022947892671    -2.57410933783754
H   98   1    10.06248925712902     6.84604311229057    -2.71665137941349
H   99   1     7.31397709525537    13.29017927240864     0.16969740598594
H   100   1    13.95194246397008    10.57847897544151     2.57410933783754
H   101   1    10.80764606256752    13.71266534207765     2.71665137941349
H   102   1    13.55615822444117     7.26852918195958    -0.16969740598594
H   103   1     1.82863127895787     9.98022947892671    11.00238233970395
H   104   1     4.97294657762168     6.84604311229057    10.85982140086676
H   105   1     2.22443441574803    13.29017927240864    13.74618908352743
H   106   1     8.86239978446273    10.57847897544151    16.15058211811779
H   107   1     5.71810338306017    13.71266534207765    16.29312415969374
H   108   1     8.46661554493383     7.26852918195958    13.40677537429431
H   109   1     0.97211291299876     4.84055236533465     9.36234572797767
H   110   1    -2.17220238566505     1.70636599869851     9.50488776955361
H   111   1     0.57632867346985     8.15050215881659     6.61853898415418
H   112   1    -6.06165559250610     5.43880186184946     4.21414594956383
H   113   1    -2.91735919110354     8.57298822848560     4.07158501072664
H   114   1    -5.66587135297720     2.12885206836753     6.95795269338731
H   115   1    11.40718057284703     4.84055236533465     9.36234572797767
H   116   1     8.26286527418322     1.70636599869851     9.50488776955361
H   117   1    11.01139633331812     8.15050215881659     6.61853898415418
H   118   1     4.37341206734217     5.43880186184946     4.21414594956383
H   119   1     7.51770846874473     8.57298822848560     4.07158501072664
H   120   1     4.76919630687108     2.12885206836753     6.95795269338731
[GTO]
1 0
 s    3 1.00
             71.616837    0.15432897000916
             13.045096    0.53532814003178
             3.5305122     0.4446345400264
 s    3 1.00
             2.9412494  -0.099967230075964
             0.6834831    0.39951283030359
             0.2222899    0.70011547053201
 p    3 1.00
             2.9412494    0.15591627210511
             0.6834831    0.60768372820466
             0.2222899    0.39195739529202

2 0
 s    3 1.00
             71.616837    0.15432897000916
             13.045096    0.53532814003178
             3.5305122     0.4446345400264
 s    3 1.00
             2.9412494  -0.099967230075964
             0.6834831    0.39951283030359
             0.2222899    0.70011547053201
 p    3 1.00
             2.9412494    0.15591627210511
             0.6834831    0.60768372820466
             0.2222899    0.39195739529202

3 0
 s    3 1.00
             71.616837    0.15432897000916
             13.045096    0.53532814003178
             3.5305122     0.4446345400264
 s    3 1.00
             2.9412494  -0.099967230075964
             0.6834831    0.39951283030359
             0.2222899    0.70011547053201
 p    3 1.00
             2.9412494    0.15591627210511
             0.6834831    0.60768372820466
             0.2222899    0.39195739529202

4 0
 s    3 1.00
             71.616837    0.15432897000916
             13.045096    0.53532814003178
             3.5305122     0.4446345400264
 s    3 1.00
             2.9412494  -0.099967230075964
             0.6834831    0.39951283030359
             0.2222899    0.70011547053201
 p    3 1.00
             2.9412494    0.15591627210511
             0.6834831    0.60768372820466
             0.2222899    0.39195739529202

5 0
 s    3 1.00
             71.616837    0.15432897000916
             13.045096    0.53532814003178
             3.5305122     0.4446345400264
 s    3 1.00
             2.9412494  -0.099967230075964
             0.6834831    0.39951283030359
             0.2222899    0.70011547053201
 p    3 1.00
             2.9412494    0.15591627210511
             0.6834831    0.60768372820466
             0.2222899    0.39195739529202

6 0
 s    3 1.00
             71.616837    0.15432897000916
             13.045096    0.53532814003178
             3.5305122     0.4446345400264
 s    3 1.00
             2.9412494  -0.099967230075964
             0.6834831    0.39951283030359
             0.2222899    0.70011547053201
 p    3 1.00
             2.9412494    0.15591627210511
             0.6834831    0.60768372820466
             0.2222899    0.39195739529202

7 0
 s    3 1.00
             71.616837    0.15432897000916
             13.045096    0.53532814003178
             3.5305122     0.4446345400264
 s    3 1.00
             2.9412494  -0.099967230075964
             0.6834831    0.39951283030359
             0.2222899    0.70011547053201
 p    3 1.00
             2.9412494    0.15591627210511
             0.6834831    0.60768372820466
             0.2222899    0.39195739529202

8 0
 s    3 1.00
             71.616837    0.15432897000916
             13.045096    0.53532814003178
             3.5305122     0.4446345400264
 s    3 1.00
             2.9412494  -0.099967230075964
             0.6834831    0.39951283030359
             0.2222899    0.70011547053201
 p    3 1.00
             2.9412494    0.15591627210511
             0.6834831    0.60768372820466
             0.2222899    0.39195739529202

9 0
 s    3 1.00
             71.616837    0.15432897000916
             13.045096    0.53532814003178
             3.5305122     0.4446345400264
 s    3 1.00
             2.9412494  -0.099967230075964
             0.6834831    0.39951283030359
             0.2222899    0.70011547053201
 p    3 1.00
             2.9412494    0.15591627210511
             0.6834831    0.60768372820466
             0.2222899    0.39195739529202

10 0
 s    3 1.00
             71.616837    0.15432897000916
             13.045096    0.53532814003178
             3.5305122     0.4446345400264
 s    3 1.00
             2.9412494  -0.099967230075964
             0.6834831    0.39951283030359
             0.2222899    0.70011547053201
 p    3 1.00
             2.9412494    0.15591627210511
             0.6834831    0.60768372820466
             0.2222899    0.39195739529202

11 0
 s    3 1.00
             71.616837    0.15432897000916
             13.045096    0.53532814003178
             3.5305122     0.4446345400264
 s    3 1.00
             2.9412494  -0.099967230075964
             0.6834831    0.39951283030359
             0.2222899    0.70011547053201
 p    3 1.00
             2.9412494    0.15591627210511
             0.6834831    0.60768372820466
             0.2222899    0.39195739529202

12 0
 s    3 1.00
             71.616837    0.15432897000916
             13.045096    0.53532814003178
             3.5305122     0.4446345400264
 s    3 1.00
             2.9412494  -0.099967230075964
             0.6834831    0.39951283030359
             0.2222899    0.70011547053201
 p    3 1.00
             2.9412494    0.15591627210511
             0.6834831    0.60768372820466
             0.2222899    0.39195739529202

13 0
 s    3 1.00
             71.616837    0.15432897000916
             13.045096    0.53532814003178
             3.5305122     0.4446345400264
 s    3 1.00
             2.9412494  -0.099967230075964
             0.6834831    0.39951283030359
             0.2222899    0.70011547053201
 p    3 1.00
             2.9412494    0.15591627210511
             0.6834831    0.60768372820466
             0.2222899    0.39195739529202

14 0
 s    3 1.00
             71.616837    0.15432897000916
             13.045096    0.53532814003178
             3.5305122     0.4446345400264
 s    3 1.00
             2.9412494  -0.099967230075964
             0.6834831    0.39951283030359
             0.2222899    0.70011547053201
 p    3 1.00
             2.9412494    0.15591627210511
             0.6834831    0.60768372820466
             0.2222899    0.39195739529202

15 0
 s    3 1.00
             71.616837    0.15432897000916
             13.045096    0.53532814003178
             3.5305122     0.4446345400264
 s    3 1.00
             2.9412494  -0.099967230075964
             0.6834831    0.39951283030359
             0.2222899    0.70011547053201
 p    3 1.00
             2.9412494    0.15591627210511
             0.6834831    0.60768372820466
             0.2222899    0.39195739529202

16 0
 s    3 1.00
             71.616837    0.15432897000916
             13.045096    0.53532814003178
             3.5305122     0.4446345400264
 s    3 1.00
             2.9412494  -0.099967230075964
             0.6834831    0.39951283030359
             0.2222899    0.70011547053201
 p    3 1.00
             2.9412494    0.15591627210511
             0.6834831    0.60768372820466
             0.2222899    0.39195739529202

17 0
 s    3 1.00
             71.616837    0.15432897000916
             13.045096    0.53532814003178
             3.5305122     0.4446345400264
 s    3 1.00
             2.9412494  -0.099967230075964
             0.6834831    0.39951283030359
             0.2222899    0.70011547053201
 p    3 1.00
             2.9412494    0.15591627210511
             0.6834831    0.60768372820466
             0.2222899    0.39195739529202

18 0
 s    3 1.00
             71.616837    0.15432897000916
             13.045096    0.53532814003178
             3.5305122     0.4446345400264
 s    3 1.00
             2.9412494  -0.099967230075964
             0.6834831    0.39951283030359
             0.2222899    0.70011547053201
 p    3 1.00
             2.9412494    0.15591627210511
             0.6834831    0.60768372820466
             0.2222899    0.39195739529202

19 0
 s    3 1.00
             71.616837    0.15432897000916
             13.045096    0.53532814003178
             3.5305122     0.4446345400264
 s    3 1.00
             2.9412494  -0.099967230075964
             0.6834831    0.39951283030359
             0.2222899    0.70011547053201
 p    3 1.00
             2.9412494    0.15591627210511
             0.6834831    0.60768372820466
             0.2222899    0.39195739529202

20 0
 s    3 1.00
             71.616837    0.15432897000916
             13.045096    0.53532814003178
             3.5305122     0.4446345400264
 s    3 1.00
             2.9412494  -0.099967230075964
             0.6834831    0.39951283030359
             0.2222899    0.70011547053201
 p    3 1.00
             2.9412494    0.15591627210511
             0.6834831    0.60768372820466
             0.2222899    0.39195739529202

21 0
 s    3 1.00
             71.616837    0.15432897000916
             13.045096    0.53532814003178
             3.5305122     0.4446345400264
 s    3 1.00
             2.9412494  -0.099967230075964
             0.6834831    0.39951283030359
             0.2222899    0.70011547053201
 p    3 1.00
             2.9412494    0.15591627210511
             0.6834831    0.60768372820466
             0.2222899    0.39195739529202

22 0
 s    3 1.00
             71.616837    0.15432897000916
             13.045096    0.53532814003178
             3.5305122     0.4446345400264
 s    3 1.00
             2.9412494  -0.099967230075964
             0.6834831    0.39951283030359
             0.2222899    0.70011547053201
 p    3 1.00
             2.9412494    0.15591627210511
             0.6834831    0.60768372820466
             0.2222899    0.39195739529202

23 0
 s    3 1.00
             71.616837    0.15432897000916
             13.045096    0.53532814003178
             3.5305122     0.4446345400264
 s    3 1.00
             2.9412494  -0.099967230075964
             0.6834831    0.39951283030359
             0.2222899    0.70011547053201
 p    3 1.00
             2.9412494    0.15591627210511
             0.6834831    0.60768372820466
             0.2222899    0.39195739529202

24 0
 s    3 1.00
             71.616837    0.15432897000916
             13.045096    0.53532814003178
             3.5305122     0.4446345400264
 s    3 1.00
             2.9412494  -0.099967230075964
             0.6834831    0.39951283030359
             0.2222899    0.70011547053201
 p    3 1.00
             2.9412494    0.15591627210511
             0.6834831    0.60768372820466
             0.2222899    0.39195739529202

25 0
 s    3 1.00
             71.616837    0.15432897000916
             13.045096    0.53532814003178
             3.5305122     0.4446345400264
 s    3 1.00
             2.9412494  -0.099967230075964
             0.6834831    0.39951283030359
             0.2222899    0.70011547053201
 p    3 1.00
             2.9412494    0.15591627210511
             0.6834831    0.60768372820466
             0.2222899    0.39195739529202

26 0
 s    3 1.00
             71.616837    0.15432897000916
             13.045096    0.53532814003178
             3.5305122     0.4446345400264
 s    3 1.00
             2.9412494  -0.099967230075964
             0.6834831    0.39951283030359
             0.2222899    0.70011547053201
 p    3 1.00
             2.9412494    0.15591627210511
             0.6834831    0.60768372820466
             0.2222899    0.39195739529202

27 0
 s    3 1.00
             71.616837    0.15432897000916
             13.045096    0.53532814003178
             3.5305122     0.4446345400264
 s    3 1.00
             2.9412494  -0.099967230075964
             0.6834831    0.39951283030359
             0.2222899    0.70011547053201
 p    3 1.00
             2.9412494    0.15591627210511
             0.6834831    0.60768372820466
             0.2222899    0.39195739529202

28 0
 s    3 1.00
             71.616837    0.15432897000916
             13.045096    0.53532814003178
             3.5305122     0.4446345400264
 s    3 1.00
             2.9412494  -0.099967230075964
             0.6834831    0.39951283030359
             0.2222899    0.70011547053201
 p    3 1.00
             2.9412494    0.15591627210511
             0.6834831    0.60768372820466
             0.2222899    0.39195739529202

29 0
 s    3 1.00
             71.616837    0.15432897000916
             13.045096    0.53532814003178
             3.5305122     0.4446345400264
 s    3 1.00
             2.9412494  -0.099967230075964
             0.6834831    0.39951283030359
             0.2222899    0.70011547053201
 p    3 1.00
             2.9412494    0.15591627210511
             0.6834831    0.60768372820466
             0.2222899    0.39195739529202

30 0
 s    3 1.00
             71.616837    0.15432897000916
             13.045096    0.53532814003178
             3.5305122     0.4446345400264
 s    3 1.00
             2.9412494  -0.099967230075964
             0.6834831    0.39951283030359
             0.2222899    0.70011547053201
 p    3 1.00
             2.9412494    0.15591627210511
             0.6834831    0.60768372820466
             0.2222899    0.39195739529202

31 0
 s    3 1.00
             71.616837    0.15432897000916
             13.045096    0.53532814003178
             3.5305122     0.4446345400264
 s    3 1.00
             2.9412494  -0.099967230075964
             0.6834831    0.39951283030359
             0.2222899    0.70011547053201
 p    3 1.00
             2.9412494    0.15591627210511
             0.6834831    0.60768372820466
             0.2222899    0.39195739529202

32 0
 s    3 1.00
             71.616837    0.15432897000916
             13.045096    0.53532814003178
             3.5305122     0.4446345400264
 s    3 1.00
             2.9412494  -0.099967230075964
             0.6834831    0.39951283030359
             0.2222899    0.70011547053201
 p    3 1.00
             2.9412494    0.15591627210511
             0.6834831    0.60768372820466
             0.2222899    0.39195739529202

33 0
 s    3 1.00
             71.616837    0.15432897000916
             13.045096    0.53532814003178
             3.5305122     0.4446345400264
 s    3 1.00
             2.9412494  -0.099967230075964
             0.6834831    0.39951283030359
             0.2222899    0.70011547053201
 p    3 1.00
             2.9412494    0.15591627210511
             0.6834831    0.60768372820466
             0.2222899    0.39195739529202

34 0
 s    3 1.00
             71.616837    0.15432897000916
             13.045096    0.53532814003178
             3.5305122     0.4446345400264
 s    3 1.00
             2.9412494  -0.099967230075964
             0.6834831    0.39951283030359
             0.2222899    0.70011547053201
 p    3 1.00
             2.9412494    0.15591627210511
             0.6834831    0.60768372820466
             0.2222899    0.39195739529202

35 0
 s    3 1.00
             71.616837    0.15432897000916
             13.045096    0.53532814003178
             3.5305122     0.4446345400264
 s    3 1.00
             2.9412494  -0.099967230075964
             0.6834831    0.39951283030359
             0.2222899    0.70011547053201
 p    3 1.00
             2.9412494    0.15591627210511
             0.6834831    0.60768372820466
             0.2222899    0.39195739529202

36 0
 s    3 1.00
             71.616837    0.15432897000916
             13.045096    0.53532814003178
             3.5305122     0.4446345400264
 s    3 1.00
             2.9412494  -0.099967230075964
             0.6834831    0.39951283030359
             0.2222899    0.70011547053201
 p    3 1.00
             2.9412494    0.15591627210511
             0.6834831    0.60768372820466
             0.2222899    0.39195739529202

37 0
 s    3 1.00
             71.616837    0.15432897000916
             13.045096    0.53532814003178
             3.5305122     0.4446345400264
 s    3 1.00
             2.9412494  -0.099967230075964
             0.6834831    0.39951283030359
             0.2222899    0.70011547053201
 p    3 1.00
             2.9412494    0.15591627210511
             0.6834831    0.60768372820466
             0.2222899    0.39195739529202

38 0
 s    3 1.00
             71.616837    0.15432897000916
             13.045096    0.53532814003178
             3.5305122     0.4446345400264
 s    3 1.00
             2.9412494  -0.099967230075964
             0.6834831    0.39951283030359
             0.2222899    0.70011547053201
 p    3 1.00
             2.9412494    0.15591627210511
             0.6834831    0.60768372820466
             0.2222899    0.39195739529202

39 0
 s    3 1.00
             71.616837    0.15432897000916
             13.045096    0.53532814003178
             3.5305122     0.4446345400264
 s    3 1.00
             2.9412494  -0.099967230075964
             0.6834831    0.39951283030359
             0.2222899    0.70011547053201
 p    3 1.00
             2.9412494    0.15591627210511
             0.6834831    0.60768372820466
             0.2222899    0.39195739529202

40 0
 s    3 1.00
             71.616837    0.15432897000916
             13.045096    0.53532814003178
             3.5305122     0.4446345400264
 s    3 1.00
             2.9412494  -0.099967230075964
             0.6834831    0.39951283030359
             0.2222899    0.70011547053201
 p    3 1.00
             2.9412494    0.15591627210511
             0.6834831    0.60768372820466
             0.2222899    0.39195739529202

41 0
 s    3 1.00
             71.616837    0.15432897000916
             13.045096    0.53532814003178
             3.5305122     0.4446345400264
 s    3 1.00
             2.9412494  -0.099967230075964
             0.6834831    0.39951283030359
             0.2222899    0.70011547053201
 p    3 1.00
             2.9412494    0.15591627210511
             0.6834831    0.60768372820466
             0.2222899    0.39195739529202

42 0
 s    3 1.00
             71.616837    0.15432897000916
             13.045096    0.53532814003178
             3.5305122     0.4446345400264
 s    3 1.00
             2.9412494  -0.099967230075964
             0.6834831    0.39951283030359
             0.2222899    0.70011547053201
 p    3 1.00
             2.9412494    0.15591627210511
             0.6834831    0.60768372820466
             0.2222899    0.39195739529202

43 0
 s    3 1.00
             71.616837    0.15432897000916
             13.045096    0.53532814003178
             3.5305122     0.4446345400264
 s    3 1.00
             2.9412494  -0.099967230075964
             0.6834831    0.39951283030359
             0.2222899    0.70011547053201
 p    3 1.00
             2.9412494    0.15591627210511
             0.6834831    0.60768372820466
             0.2222899    0.39195739529202

44 0
 s    3 1.00
             71.616837    0.15432897000916
             13.045096    0.53532814003178
             3.5305122     0.4446345400264
 s    3 1.00
             2.9412494  -0.099967230075964
             0.6834831    0.39951283030359
             0.2222899    0.70011547053201
 p    3 1.00
             2.9412494    0.15591627210511
             0.6834831    0.60768372820466
             0.2222899    0.39195739529202

45 0
 s    3 1.00
             71.616837    0.15432897000916
             13.045096    0.53532814003178
             3.5305122     0.4446345400264
 s    3 1.00
             2.9412494  -0.099967230075964
             0.6834831    0.39951283030359
             0.2222899    0.70011547053201
 p    3 1.00
             2.9412494    0.15591627210511
             0.6834831    0.60768372820466
             0.2222899    0.39195739529202

46 0
 s    3 1.00
             71.616837    0.15432897000916
             13.045096    0.53532814003178
             3.5305122     0.4446345400264
 s    3 1.00
             2.9412494  -0.099967230075964
             0.6834831    0.39951283030359
             0.2222899    0.70011547053201
 p    3 1.00
             2.9412494    0.15591627210511
             0.6834831    0.60768372820466
             0.2222899    0.39195739529202

47 0
 s    3 1.00
             71.616837    0.15432897000916
             13.045096    0.53532814003178
             3.5305122     0.4446345400264
 s    3 1.00
             2.9412494  -0.099967230075964
             0.6834831    0.39951283030359
             0.2222899    0.70011547053201
 p    3 1.00
             2.9412494    0.15591627210511
             0.6834831    0.60768372820466
             0.2222899    0.39195739529202

48 0
 s    3 1.00
             71.616837    0.15432897000916
             13.045096    0.53532814003178
             3.5305122     0.4446345400264
 s    3 1.00
             2.9412494  -0.099967230075964
             0.6834831    0.39951283030359
             0.2222899    0.70011547053201
 p    3 1.00
             2.9412494    0.15591627210511
             0.6834831    0.60768372820466
             0.2222899    0.39195739529202

49 0
 s    3 1.00
             71.616837    0.15432897000916
             13.045096    0.53532814003178
             3.5305122     0.4446345400264
 s    3 1.00
             2.9412494  -0.099967230075964
             0.6834831    0.39951283030359
             0.2222899    0.70011547053201
 p    3 1.00