[Molden Format]
made by pyscf v[2.2.1]
[Atoms] (AU)
Cr   1   24    -2.49591247080304     0.00009448630623    -0.00013228082872
Cr   2   24     2.49589357354180     0.00009448630623    -0.00013228082872
O   3   8     0.00000000000000    -0.31337328323662     2.74894679888230
O   4   8     0.00000000000000     2.53746754828223    -1.10307093343112
O   5   8     0.00000000000000    -2.22388639517190    -1.64597035175741
H   6   1     0.00003779452249     0.94728191172197     4.08167614823181
H   7   1     0.00105824662976     3.05888078057222    -2.86195242113129
H   8   1    -0.00083147949481    -4.00771226771634    -1.21722928861609
N   9   7    -5.00739628487250    -2.73195816102246     1.34438895953808
H   10   1    -4.13275544537881    -4.12334460927847     2.35157518940876
H   11   1    -5.77114799537672    -3.48503291892289    -0.25713503376957
H   12   1    -6.36321808746420    -1.89940152232283     2.43247436480139
N   13   7    -5.00739628487250     2.53038107531511     1.69376152544767
N   14   7    -5.00739628487250     0.20176605831981    -3.03824497129197
H   15   1    -6.36321808746420    -1.15681474441375    -2.86125322246521
H   16   1    -5.77114799537672     1.51994451651017     3.14669635358076
N   17   7     5.00739628487250    -2.73193926376122     1.34438895953808
N   18   7     5.00737738761126     2.53039997257635     1.69376152544767
N   19   7     5.00739628487250     0.20178495558106    -3.03824497129197
H   20   1    -4.13277434264005     4.09830573812799     2.39513337657999
H   21   1    -6.36321808746420     3.05638634208779     0.42870326861883
H   22   1    -4.13275544537881     0.02520894650170    -4.74680305229498
H   23   1    -5.77116689263796     1.96527737502517    -2.88965580611742
H   24   1     4.13275544537881    -4.12332571201723     2.35157518940876
H   25   1     5.77114799537672    -3.48501402166164    -0.25715393103081
H   26   1     6.36321808746420    -1.89936372780034     2.43245546754015
H   27   1     4.13273654811756     4.09832463538923     2.39513337657999
H   28   1     5.77114799537672     1.51996341377142     3.14669635358076
H   29   1     6.36319919020295     3.05640523934904     0.42868437135758
H   30   1     4.13275544537881     0.02522784376294    -4.74680305229498
H   31   1     5.77114799537672     1.96529627228642    -2.88965580611742
H   32   1     6.36321808746420    -1.15679584715250    -2.86125322246521
[GTO]
1 0
 s    6 1.00
          51528.086349  0.0017695545768669
          7737.2103487   0.013556436258096
           1760.374847   0.067162645785071
          496.87706544    0.23295905918518
          161.46520598    0.47040576982722
          55.466352268    0.35733072606876
 s    3 1.00
          107.54732999   -0.10605255446629
          12.408671897    0.62543981484169
          5.0423628826    0.44878820793655
 s    3 1.00
          8.5461640165   -0.21819012081133
          1.3900441221    0.70422525667731
         0.56066602876    0.42488555412558
 s    1 1.00
        0.071483705972                   1
 s    1 1.00
        0.028250687604                   1
 p    5 1.00
          640.48536096  0.0093555063746755
          150.69711194   0.068993338492216
          47.503755296     0.2634118959318
          16.934120165    0.51034501651775
           6.240968059    0.33195512953954
 p    3 1.00
          3.0885463206    0.32917682676976
          1.1791047769    0.55491385190365
         0.43369774432    0.23818412855984
 p    1 1.00
              0.120675                   1
 d    4 1.00
          27.559479426   0.036950140313562
          7.4687020327    0.18821519783039
          2.4345903574    0.44641244239929
         0.78244754808     0.5681617303244
 d    1 1.00
         0.21995774311                   1
 f    1 1.00
                 1.147                   1

2 0
 s    6 1.00
          51528.086349  0.0017695545768669
          7737.2103487   0.013556436258096
           1760.374847   0.067162645785071
          496.87706544    0.23295905918518
          161.46520598    0.47040576982722
          55.466352268    0.35733072606876
 s    3 1.00
          107.54732999   -0.10605255446629
          12.408671897    0.62543981484169
          5.0423628826    0.44878820793655
 s    3 1.00
          8.5461640165   -0.21819012081133
          1.3900441221    0.70422525667731
         0.56066602876    0.42488555412558
 s    1 1.00
        0.071483705972                   1
 s    1 1.00
        0.028250687604                   1
 p    5 1.00
          640.48536096  0.0093555063746755
          150.69711194   0.068993338492216
          47.503755296     0.2634118959318
          16.934120165    0.51034501651775
           6.240968059    0.33195512953954
 p    3 1.00
          3.0885463206    0.32917682676976
          1.1791047769    0.55491385190365
         0.43369774432    0.23818412855984
 p    1 1.00
              0.120675                   1
 d    4 1.00
          27.559479426   0.036950140313562
          7.4687020327    0.18821519783039
          2.4345903574    0.44641244239929
         0.78244754808     0.5681617303244
 d    1 1.00
         0.21995774311                   1
 f    1 1.00
                 1.147                   1

3 0
 s    5 1.00
          2266.1767785  -0.0053893503921743
          340.87010191   -0.04023472138896
          77.363135167   -0.18008184205526
           21.47964494   -0.46828857657651
          6.6589433124   -0.44692617160187
 s    1 1.00
         0.80975975668                   1
 s    1 1.00
         0.25530772234                   1
 p    3 1.00
          17.721504317   0.062630248763161
           3.863550544    0.33331138482352
          1.0480920883    0.74148638308122
 p    1 1.00
         0.27641544411                   1
 d    1 1.00
                   1.2                   1

4 0
 s    5 1.00
          2266.1767785  -0.0053893503921743
          340.87010191   -0.04023472138896
          77.363135167   -0.18008184205526
           21.47964494   -0.46828857657651
          6.6589433124   -0.44692617160187
 s    1 1.00
         0.80975975668                   1
 s    1 1.00
         0.25530772234                   1
 p    3 1.00
          17.721504317   0.062630248763161
           3.863550544    0.33331138482352
          1.0480920883    0.74148638308122
 p    1 1.00
         0.27641544411                   1
 d    1 1.00
                   1.2                   1

5 0
 s    5 1.00
          2266.1767785  -0.0053893503921743
          340.87010191   -0.04023472138896
          77.363135167   -0.18008184205526
           21.47964494   -0.46828857657651
          6.6589433124   -0.44692617160187
 s    1 1.00
         0.80975975668                   1
 s    1 1.00
         0.25530772234                   1
 p    3 1.00
          17.721504317   0.062630248763161
           3.863550544    0.33331138482352
          1.0480920883    0.74148638308122
 p    1 1.00
         0.27641544411                   1
 d    1 1.00
                   1.2                   1

6 0
 s    3 1.00
             13.010701   0.033485484812989
             1.9622572    0.23472187088125
            0.44453796    0.81377028525955
 s    1 1.00
            0.12194962                   1
 p    1 1.00
                   0.8                   1

7 0
 s    3 1.00
             13.010701   0.033485484812989
             1.9622572    0.23472187088125
            0.44453796    0.81377028525955
 s    1 1.00
            0.12194962                   1
 p    1 1.00
                   0.8                   1

8 0
 s    3 1.00
             13.010701   0.033485484812989
             1.9622572    0.23472187088125
            0.44453796    0.81377028525955
 s    1 1.00
            0.12194962                   1
 p    1 1.00
                   0.8                   1

9 0
 s    5 1.00
          1712.8415853  -0.0054477995804909
          257.64812677  -0.040627174632423
          58.458245853   -0.18111962250584
          16.198367905   -0.46843975563173
          5.0052600809   -0.44616846289231
 s    1 1.00
         0.58731856571                   1
 s    1 1.00
         0.18764592253                   1
 p    3 1.00
          13.571470233  -0.058848116969522
          2.9257372874   -0.32024624762471
         0.79927750754   -0.75328226520436
 p    1 1.00
         0.21954348034                   1
 d    1 1.00
                     1                   1

10 0
 s    3 1.00
             13.010701   0.033485484812989
             1.9622572    0.23472187088125
            0.44453796    0.81377028525955
 s    1 1.00
            0.12194962                   1
 p    1 1.00
                   0.8                   1

11 0
 s    3 1.00
             13.010701   0.033485484812989
             1.9622572    0.23472187088125
            0.44453796    0.81377028525955
 s    1 1.00
            0.12194962                   1
 p    1 1.00
                   0.8                   1

12 0
 s    3 1.00
             13.010701   0.033485484812989
             1.9622572    0.23472187088125
            0.44453796    0.81377028525955
 s    1 1.00
            0.12194962                   1
 p    1 1.00
                   0.8                   1

13 0
 s    5 1.00
          1712.8415853  -0.0054477995804909
          257.64812677  -0.040627174632423
          58.458245853   -0.18111962250584
          16.198367905   -0.46843975563173
          5.0052600809   -0.44616846289231
 s    1 1.00
         0.58731856571                   1
 s    1 1.00
         0.18764592253                   1
 p    3 1.00
          13.571470233  -0.058848116969522
          2.9257372874   -0.32024624762471
         0.79927750754   -0.75328226520436
 p    1 1.00
         0.21954348034                   1
 d    1 1.00
                     1                   1

14 0
 s    5 1.00
          1712.8415853  -0.0054477995804909
          257.64812677  -0.040627174632423
          58.458245853   -0.18111962250584
          16.198367905   -0.46843975563173
          5.0052600809   -0.44616846289231
 s    1 1.00
         0.58731856571                   1
 s    1 1.00
         0.18764592253                   1
 p    3 1.00
          13.571470233  -0.058848116969522
          2.9257372874   -0.32024624762471
         0.79927750754   -0.75328226520436
 p    1 1.00
         0.21954348034                   1
 d    1 1.00
                     1                   1

15 0
 s    3 1.00
             13.010701   0.033485484812989
             1.9622572    0.23472187088125
            0.44453796    0.81377028525955
 s    1 1.00
            0.12194962                   1
 p    1 1.00
                   0.8                   1

16 0
 s    3 1.00
             13.010701   0.033485484812989
             1.9622572    0.23472187088125
            0.44453796    0.81377028525955
 s    1 1.00
            0.12194962                   1
 p    1 1.00
                   0.8                   1

17 0
 s    5 1.00
          1712.8415853  -0.0054477995804909
          257.64812677  -0.040627174632423
          58.458245853   -0.18111962250584
          16.198367905   -0.46843975563173
          5.0052600809   -0.44616846289231
 s    1 1.00
         0.58731856571                   1
 s    1 1.00
         0.18764592253                   1
 p    3 1.00
          13.571470233  -0.058848116969522
          2.9257372874   -0.32024624762471
         0.79927750754   -0.75328226520436
 p    1 1.00
         0.21954348034                   1
 d    1 1.00
                     1                   1

18 0
 s    5 1.00
          1712.8415853  -0.0054477995804909
          257.64812677  -0.040627174632423
          58.458245853   -0.18111962250584
          16.198367905   -0.46843975563173
          5.0052600809   -0.44616846289231
 s    1 1.00
         0.58731856571                   1
 s    1 1.00
         0.18764592253                   1
 p    3 1.00
          13.571470233  -0.058848116969522
          2.9257372874   -0.32024624762471
         0.79927750754   -0.75328226520436
 p    1 1.00
         0.21954348034                   1
 d    1 1.00
                     1                   1

19 0
 s    5 1.00
          1712.8415853  -0.0054477995804909
          257.64812677  -0.040627174632423
          58.458245853   -0.18111962250584
          16.198367905   -0.46843975563173
          5.0052600809   -0.44616846289231
 s    1 1.00
         0.58731856571                   1
 s    1 1.00
         0.18764592253                   1
 p    3 1.00
          13.571470233  -0.058848116969522
          2.9257372874   -0.32024624762471
         0.79927750754   -0.75328226520436
 p    1 1.00
         0.21954348034                   1
 d    1 1.00
                     1                   1

20 0
 s    3 1.00
             13.010701   0.033485484812989
             1.9622572    0.23472187088125
            0.44453796    0.81377028525955
 s    1 1.00
            0.12194962                   1
 p    1 1.00
                   0.8                   1

21 0
 s    3 1.00
             13.010701   0.033485484812989
             1.9622572    0.23472187088125
            0.44453796    0.81377028525955
 s    1 1.00
            0.12194962                   1
 p    1 1.00
                   0.8                   1

22 0
 s    3 1.00
             13.010701   0.033485484812989
             1.9622572    0.23472187088125
            0.44453796    0.81377028525955
 s    1 1.00
            0.12194962                   1
 p    1 1.00
                   0.8                   1

23 0
 s    3 1.00
             13.010701   0.033485484812989
             1.9622572    0.23472187088125
            0.44453796    0.81377028525955
 s    1 1.00
            0.12194962                   1
 p    1 1.00
                   0.8                   1

24 0
 s    3 1.00
             13.010701   0.033485484812989
             1.9622572    0.23472187088125
            0.44453796    0.81377028525955
 s    1 1.00
            0.12194962                   1
 p    1 1.00
                   0.8                   1

25 0
 s    3 1.00
             13.010701   0.033485484812989
             1.9622572    0.23472187088125
            0.44453796    0.81377028525955
 s    1 1.00
            0.12194962                   1
 p    1 1.00
                   0.8                   1

26 0
 s    3 1.00
             13.010701   0.033485484812989
             1.9622572    0.23472187088125
            0.44453796    0.81377028525955
 s    1 1.00
            0.12194962                   1
 p    1 1.00
                   0.8                   1

27 0
 s    3 1.00
             13.010701   0.033485484812989
             1.9622572    0.23472187088125
            0.44453796    0.81377028525955
 s    1 1.00
            0.12194962                   1
 p    1 1.00
                   0.8                   1

28 0
 s    3 1.00
             13.010701   0.033485484812989
             1.9622572    0.23472187088125
            0.44453796    0.81377028525955
 s    1 1.00
            0.12194962                   1
 p    1 1.00
                   0.8                   1

29 0
 s    3 1.00
             13.010701   0.033485484812989
             1.9622572    0.23472187088125
            0.44453796    0.81377028525955
 s    1 1.00
            0.12194962                   1
 p    1 1.00
                   0.8                   1

30 0
 s    3 1.00
             13.010701   0.033485484812989
             1.9622572    0.23472187088125
            0.44453796    0.81377028525955
 s    1 1.00
            0.12194962                   1
 p    1 1.00
                   0.8                   1

31 0
 s    3 1.00
             13.010701   0.033485484812989
             1.9622572    0.23472187088125
            0.44453796    0.81377028525955
 s    1 1.00
            0.12194962                   1
 p    1 1.00
                   0.8                   1

32 0
 s    3 1.00
             13.010701   0.033485484812989
             1.9622572    0.23472187088125
            0.44453796    0.81377028525955
 s    1 1.00
            0.12194962                   1
 p    1 1.00
                   0.8                   1

[5d]
[7f]
[9g]

[MO]
 Sym= A
 Ene=               0
 Spin= Alpha
 Occup=    1.00000
   1     0.049887753419835
   2     -0.23510404939088
   3        1.253690879339
   4      -0.8949341007471
   5    -0.024189246140716
   6    1.8037270489188e-05
   7    1.5833735365047e-06
   8    -5.524841177193e-07
   9    0.0004629788723327
  10    -6.1030880309537e-06
  11    2.0105623198446e-06
  12     0.006250057168035
  13    4.2159147594223e-05
  14    -1.732997979941e-05
  15    -0.0059887637367288
  16    -6.1838250188499e-07
  17    -5.5539204156281e-07
  18     0.010372716563209
  19    -9.4327189438987e-07
  20     0.036862501335047
  21    -2.6826143497365e-06
  22    1.184748718261e-06
  23    -0.063857708425039
  24    3.3696418387246e-06
  25    -2.7106959601194e-05
  26    0.00043847907302248
  27    0.0014328806366851
  28    -2.1410797558725e-05
  29    -8.6275356719014e-07
  30    -0.00056716620568205
  31    0.00037025038257151
  32    0.00031682167343232
  33    -0.00059455366229186
  34    0.0088902897330927
  35     0.089439719598854
  36    -0.014732861506299
  37    0.0015223879914946
  38    2.3080804692125e-07
  39    4.1932925459343e-07
  40    -0.0077041914700824
  41    -8.8550168224136e-07
  42    -1.6655207648398e-06
  43    -0.031155687661654
  44    6.8393076010808e-06
  45    1.8712526324984e-05
  46    -0.001235880975098
  47    1.0799830731901e-06
  48    -1.3810135656357e-06
  49    0.0021402703361398
  50    2.5668548615465e-07
  51    -0.0062268798268151
  52    -7.2016533367157e-06
  53    2.5711695857343e-06
  54     0.010784687784654
  55    -3.0855426684076e-06
  56    -0.0010110610929166
  57    0.0029754952339462
  58    0.00061753436264483
  59    -0.00078331552703966
  60    8.8841120855152e-07
  61    -0.0038406864074696
  62    0.00015969226394632
  63    -0.002084955974619
  64    -0.034355405549027
  65      0.14760524992528
  66    0.00057930987187031
  67    0.0034785016309727
  68    -0.0064962319134772
  69    -0.039824198485925
  70    -0.010502125937587
  71    -0.029933469040496
  72    0.0052412300872375
  73    0.0060403649430808
  74    -0.00033115734178979
  75    0.0012004293337549
  76    0.00021694136969579
  77    -0.0020845867055806
  78    -0.034344861709704
  79      0.14756276349566
  80    0.00057456533759606
  81    -0.0073771561354217
  82    0.00023784004743592
  83    -0.039800846272527
  84    -0.020632896896072
  85     0.024083625556669
  86    -0.0016890379532079
  87    -0.0032097095264636
  88    -0.0042836735162473
  89    -0.0027957812249719
  90    0.0051193964099821
  91    -0.0020851152163608
  92    -0.034347145344618
  93      0.14755547905115
  94    0.00057296482335249
  95    0.0038908123465041
  96    0.0062693384337802
  97    -0.039790448515022
  98     0.031210023517986
  99    0.0058196339186124
 100    -0.0011861268950948
 101    -0.0028266952675965
 102    0.0046235500915709
 103    -0.0025024480102494
 104    -0.0053417778780158
 105    -0.011982258502227
 106     0.075125486116758
 107    -0.0066626285547714
 108    0.0048319347441972
 109    -0.0078126535148407
 110    -0.011946341897059
 111     0.075141346135069
 112    -0.0066716328072463
 113    -0.0092030653752615
 114    -0.0002645351967207
 115    -0.011913984798507
 116     0.075178842654643
 117    -0.0066856973291095
 118    0.0043887565000047
 119    0.0081083877245244
 120    -0.0010136807928515
 121    -0.031018140233541
 122      0.14709409859709
 123    0.00067533174306795
 124    -0.0022977957322501
 125    0.0018198761424804
 126     0.049118040768363
 127      0.06046366884207
 128    -0.019424015357507
 129    -0.0040724979118791
 130    -0.0036253643949936
 131    -0.0066329165828574
 132    -0.004021500630609
 133     0.006903603277517
 134    -0.011707282327995
 135     0.061202644785944
 136    0.0045285893744832
 137    0.0048627344713303
 138    -0.0021259096496399
 139    -0.0011974449485527
 140      0.04407468786748
 141    0.0062761124859553
 142    0.0046581576618952
 143    -0.00090830239376314
 144    -0.0046394877786981
 145     0.019739382610872
 146    0.0016673926154102
 147    0.0010814582869043
 148    -0.0029800252067947
 149    -0.0010135732736843
 150    -0.031013484485699
 151      0.14705875749641
 152    0.00067546111416972
 153    0.0027259988376146
 154    0.0010820492315868
 155      0.04910771342511
 156    -0.047060795990566
 157    -0.042635633090239
 158    -0.0018525399394864
 159    -0.0041669796335064
 160     0.008111095114864
 161    -0.0027414478128584
 162    -0.0065913666404638
 163    -0.0010133016299148
 164    -0.031011306266888
 165      0.14706537472263
 166    0.00067296727821096
 167    -0.00042611056915801
 168    -0.0029043856155873
 169     0.049105161832303
 170     -0.01340935736318
 171     0.062064529893761
 172    0.0080964276640309
 173    0.0077917242967145
 174    -0.0014796932889371
 175    0.0030033040233285
 176    -0.00031231607704546
 177    -0.0046347051787139
 178     0.019729869209307
 179    0.0016693089312992
 180    0.0020393352143316
 181    0.0024300065125705
 182    -0.0012018054730756
 183     0.044060881997274
 184     0.006274734338406
 185    -0.0031161888985206
 186    -0.0035792059368788
 187    0.00010598315963568
 188    0.00057234961456033
 189    -0.00031323691171251
 190    -0.00011084931727246
 191    0.00018586656686481
 192    0.00039470921583555
 193    -0.0012175919896959
 194    -5.8462024926601e-06
 195    0.0014946851899413
 196    -0.00015959218650833
 197     0.000356622292099
 198    0.00015434897753836
 199    0.00066239202401058
 200    -0.00020257428887709
 201    0.00010585529202578
 202    0.00057223977041671
 203    -0.00032382455712904
 204    -0.00011177570425399
 205    0.00024854913203974
 206    -0.00035836781423743
 207    -0.0012135687308398
 208    0.0012851985210354
 209    -0.00074190626573693
 210    -0.00029388190086835
 211    -1.7976938226063e-06
 212    -0.00024540871047334
 213    0.00058423843925189
 214    0.00041080301982087
 215    0.00010589287707089
 216    0.00057166273221212
 217    -0.0003118879907278
 218    -0.00011085251196017
 219    -0.00043609223743314
 220    -3.5856633221214e-05
 221    -0.0012126112215644
 222    -0.0012984295154127
 223    -0.00074598451937999
 224    -0.00052714767874843
 225    -0.00035429251367057
 226    9.0056182425346e-05
 227    0.00045076062351494
 228    -0.00020833245548584
 229    -0.011712096400461
 230     0.061248662799889
 231     0.004529829813388
 232    -0.0042786005760523
 233    -0.0031517476586641
 234    -0.0046304590635204
 235     0.019732687708906
 236    0.0016697877664162
 237    -0.0031229334724409
 238    0.00055296686494789
 239    -0.011711672553834
 240     0.061236378254461
 241    0.0045321619075763
 242    -0.00058916667291893
 243     0.005280159884096
 244    -0.0011981557706478
 245      0.04408147339349
 246    0.0062787544879558
 247    -0.0015433682521488
 248    0.0044905270927543
 249    -0.0009155212606869
 250    0.0017557306650233
 251    7.1392578591067e-05
 252    -6.4703691202973e-05
 253    -9.1796582344451e-05
 254    0.0026891106285912
 255    -0.0091207163126013
 256    0.0011948619241667
 257    -0.00048619664906346
 258    -7.8753681640308e-05
 259    -0.00090813479738045
 260    0.0028780618103907
 261    0.00071407925510948
 262    0.00033215482801577
 263    -0.00038440189762101
 264    -0.00091644435993257
 265    0.0017874503924063
 266    7.1030469229935e-05
 267    -5.2025747701056e-05
 268    0.00010041586208872
 269    0.0026879933848084
 270    -0.0091332933655501
 271    0.0011968867669526
 272    0.00017476112047889
 273    0.00046167948789103
 274    -0.00090544341761139
 275    0.0028749151658794
 276    0.00071376306840018
 277    -0.00049870186844296
 278    -9.5480075272621e-05
 279    -0.00091530604483852
 280    0.0017694994740064
 281    7.1454238504738e-05
 282    0.00011271580838579
 283    -7.416623954267e-06
 284    0.0026936243324739
 285    -0.0091316346698103
 286    0.0011957071677895
 287    0.00031201340842739
 288    -0.00038199352984416
 289    -0.00091287558326495
 290    0.0028755874836075
 291     0.000715065525314
 292    0.00016694072496469
 293    0.00047956970213386
 Sym= A
 Ene=               1
 Spin= Alpha
 Occup=    1.00000
   1    1.4999679089565e-05
   2    -7.2340433002642e-05
   3    0.00046297887233386
   4    0.0012061981684997
   5     0.011239409444653
   6     -0.21015538258514
   7    3.9702239263484e-07
   8    4.533329300116e-07
   9       1.1472020340824
  10    -1.4844786822413e-06
  11    -1.7244773992509e-06
  12     -0.52348432961278
  13    5.7959250056132e-06
  14    5.6647530634863e-06
  15    -0.0020066052401601
  16    -5.2607978449698e-07
  17    -4.7731628224173e-07
  18    0.0034738875258168
  19    -2.5574773988216e-07
  20      0.01140773722985
  21    -4.8602499741397e-06
  22    2.4871324563153e-06
  23    -0.019764413830307
  24    -1.2292345672555e-06
  25    -0.0028554175954644
  26    0.0002583854339909
  27    0.00087410134670051
  28    -0.0022119575878348
  29    -4.7395521480656e-07
  30    -0.00033520922446613
  31    0.00022571944954236
  32    0.00027704895007365
  33    -0.0006030925600377
  34     0.007704143077442
  35     0.067111113055385
  36    -0.0030547075962288
  37    0.0010981249078904
  38    8.5569714742891e-08
  39    2.8327336492528e-07
  40    -0.0059994699683786
  41    -2.7027865007279e-07
  42    -1.1209111156782e-06
  43    -0.072553718931517
  44    -1.0161953847954e-06
  45    9.9230065564431e-06
  46    -0.0018608973765925
  47    2.5760919652937e-07
  48    5.8035763899265e-08
  49    0.0032232074651249
  50    -2.3752167203617e-07
  51    -0.012249966085049
  52    -4.8174728922665e-07
  53    -1.2725491055207e-06
  54     0.021214078576573
  55    2.6721119849459e-06
  56    -0.0016777826711108
  57    0.0039064153418341
  58    0.00095677227464281
  59    -0.0012995182015053
  60    4.5093907325687e-07
  61    -0.0050427894113405
  62    0.00024695541839039
  63    0.00052361931095018
  64    0.00044169262694937
  65     0.066051045196493
  66    -0.010917654980383
  67    0.0011847992083698
  68    -0.0080661070397899
  69     0.017631075905643
  70    -0.0034835887695009
  71    -0.019571502225837
  72    0.0049069211437422
  73    0.00096204205006715
  74    -0.0015043862526059
  75    -0.0038903146169647
  76    0.0016447830820172
  77    0.00052401967100551
  78    0.00044935154528248
  79      0.06602935807329
  80    -0.010920427255908
  81    -0.0075816163289544
  82    0.0030104691548111
  83     0.017642665123787
  84    -0.015188836674302
  85     0.012811514339504
  86    0.00077914286696775
  87    -0.0019060974723391
  88    -0.0012475790270912
  89    -0.006268682269806
  90    6.5447646705406e-06
  91    0.00052333589669607
  92    0.00044928470003433
  93     0.066002002968827
  94    -0.010919943925326
  95    0.0063996721967646
  96    0.0050596105860914
  97     0.017645296617131
  98      0.01871738093653
  99    0.0067347782983797
 100    0.0030406396808429
 101    0.00094957047945629
 102    0.0027600175735275
 103    -0.0049609104529155
 104    -0.0016555352433079
 105    0.0043497936350918
 106    0.0062191227316916
 107    -0.0086708701469345
 108    0.0021725742829941
 109    -0.0052939241333144
 110    0.0043612292666768
 111    0.0062391388857644
 112    -0.0086817853676562
 113    -0.0056888134704779
 114    0.00077276998864109
 115    0.0044058099813137
 116    0.0062458603742215
 117    -0.0086788272891279
 118    0.0035385091494442
 119    0.0045422286158811
 120    -0.00066223592812544
 121    0.0034813099829874
 122    -0.095252152468838
 123    0.0097030379360837
 124    0.0056635986726046
 125    -0.0025084593141019
 126     0.020572123413983
 127    -0.047261833925365
 128      0.01290840359727
 129    0.0018974950588155
 130     0.002296554668827
 131    0.0032754776766899
 132    0.0037171322755232
 133    -0.0026714035189951
 134    -0.010007809400219
 135    -0.00097660008679329
 136    -0.0015851770203307
 137    -0.0011281761000634
 138     0.002320806892059
 139    0.00045835985075212
 140    -0.019024034660591
 141      -0.0129488879467
 142    -0.0054281977311781
 143    0.0037250781448574
 144     0.010894524535981
 145    3.0066207464404e-05
 146    -0.0069692146147424
 147    -0.0073427010422076
 148    -0.00041272277781229
 149    -0.00066219655509378
 150    0.0034829293862671
 151    -0.095265620139095
 152    0.0097034893753381
 153    -0.0050043452382563
 154    -0.0036502976760974
 155     0.020569610422906
 156     0.034808111989923
 157     0.034477697564995
 158    -0.00019473744815498
 159    0.0011653796643465
 160    -0.0046702949697656
 161    0.0025089224710045
 162    0.0033245812300276
 163    -0.00066243991053178
 164    0.0034770760901511
 165    -0.095254671162435
 166    0.0097051084640854
 167    -0.00065949644516112
 168    0.0061614727634725
 169     0.020579429734405
 170     0.012451209118201
 171    -0.047371068133484
 172    -0.0051075724453714
 173    -0.0034602773330111
 174     0.001394635206778
 175    -0.00032715981578115
 176    -0.00065320155469459
 177     0.010893059677887
 178    2.9713292336517e-05
 179    -0.0069710899246466
 180    0.0040293494379536
 181    -0.0061558223946599
 182    0.00045893615464117
 183    -0.019020622147587
 184    -0.012948319710484
 185    0.0059391227277649
 186    0.0028376677689917
 187    5.9711808398424e-05
 188    -0.00084899584122445
 189     0.010193158065716
 190    0.00038546996668109
 191    1.6177450244965e-05
 192    -0.00011653067461352
 193    -0.0018955911640435
 194     0.001561986320694
 195    -0.0020211322381883
 196    -0.00020178648594715
 197    0.00010108419804436
 198    0.0001159932839309
 199    0.00060428032838721
 200    -0.00049439738682274
 201    5.9714102269935e-05
 202    -0.00084847997731124
 203     0.010188861941539