[Molden Format]
made by pyscf v[2.2.1]
[Atoms] (AU)
Cr   1   24    -2.49591247080304     0.00009448630623    -0.00013228082872
Cr   2   24     2.49589357354180     0.00009448630623    -0.00013228082872
O   3   8     0.00000000000000    -0.31337328323662     2.74894679888230
O   4   8     0.00000000000000     2.53746754828223    -1.10307093343112
O   5   8     0.00000000000000    -2.22388639517190    -1.64597035175741
H   6   1     0.00003779452249     0.94728191172197     4.08167614823181
H   7   1     0.00105824662976     3.05888078057222    -2.86195242113129
H   8   1    -0.00083147949481    -4.00771226771634    -1.21722928861609
N   9   7    -5.00739628487250    -2.73195816102246     1.34438895953808
H   10   1    -4.13275544537881    -4.12334460927847     2.35157518940876
H   11   1    -5.77114799537672    -3.48503291892289    -0.25713503376957
H   12   1    -6.36321808746420    -1.89940152232283     2.43247436480139
N   13   7    -5.00739628487250     2.53038107531511     1.69376152544767
N   14   7    -5.00739628487250     0.20176605831981    -3.03824497129197
H   15   1    -6.36321808746420    -1.15681474441375    -2.86125322246521
H   16   1    -5.77114799537672     1.51994451651017     3.14669635358076
N   17   7     5.00739628487250    -2.73193926376122     1.34438895953808
N   18   7     5.00737738761126     2.53039997257635     1.69376152544767
N   19   7     5.00739628487250     0.20178495558106    -3.03824497129197
H   20   1    -4.13277434264005     4.09830573812799     2.39513337657999
H   21   1    -6.36321808746420     3.05638634208779     0.42870326861883
H   22   1    -4.13275544537881     0.02520894650170    -4.74680305229498
H   23   1    -5.77116689263796     1.96527737502517    -2.88965580611742
H   24   1     4.13275544537881    -4.12332571201723     2.35157518940876
H   25   1     5.77114799537672    -3.48501402166164    -0.25715393103081
H   26   1     6.36321808746420    -1.89936372780034     2.43245546754015
H   27   1     4.13273654811756     4.09832463538923     2.39513337657999
H   28   1     5.77114799537672     1.51996341377142     3.14669635358076
H   29   1     6.36319919020295     3.05640523934904     0.42868437135758
H   30   1     4.13275544537881     0.02522784376294    -4.74680305229498
H   31   1     5.77114799537672     1.96529627228642    -2.88965580611742
H   32   1     6.36321808746420    -1.15679584715250    -2.86125322246521
[GTO]
1 0
 s    6 1.00
          51528.086349  0.0017695545768669
          7737.2103487   0.013556436258096
           1760.374847   0.067162645785071
          496.87706544    0.23295905918518
          161.46520598    0.47040576982722
          55.466352268    0.35733072606876
 s    3 1.00
          107.54732999   -0.10605255446629
          12.408671897    0.62543981484169
          5.0423628826    0.44878820793655
 s    3 1.00
          8.5461640165   -0.21819012081133
          1.3900441221    0.70422525667731
         0.56066602876    0.42488555412558
 s    1 1.00
        0.071483705972                   1
 s    1 1.00
        0.028250687604                   1
 p    5 1.00
          640.48536096  0.0093555063746755
          150.69711194   0.068993338492216
          47.503755296     0.2634118959318
          16.934120165    0.51034501651775
           6.240968059    0.33195512953954
 p    3 1.00
          3.0885463206    0.32917682676976
          1.1791047769    0.55491385190365
         0.43369774432    0.23818412855984
 p    1 1.00
              0.120675                   1
 d    4 1.00
          27.559479426   0.036950140313562
          7.4687020327    0.18821519783039
          2.4345903574    0.44641244239929
         0.78244754808     0.5681617303244
 d    1 1.00
         0.21995774311                   1
 f    1 1.00
                 1.147                   1

2 0
 s    6 1.00
          51528.086349  0.0017695545768669
          7737.2103487   0.013556436258096
           1760.374847   0.067162645785071
          496.87706544    0.23295905918518
          161.46520598    0.47040576982722
          55.466352268    0.35733072606876
 s    3 1.00
          107.54732999   -0.10605255446629
          12.408671897    0.62543981484169
          5.0423628826    0.44878820793655
 s    3 1.00
          8.5461640165   -0.21819012081133
          1.3900441221    0.70422525667731
         0.56066602876    0.42488555412558
 s    1 1.00
        0.071483705972                   1
 s    1 1.00
        0.028250687604                   1
 p    5 1.00
          640.48536096  0.0093555063746755
          150.69711194   0.068993338492216
          47.503755296     0.2634118959318
          16.934120165    0.51034501651775
           6.240968059    0.33195512953954
 p    3 1.00
          3.0885463206    0.32917682676976
          1.1791047769    0.55491385190365
         0.43369774432    0.23818412855984
 p    1 1.00
              0.120675                   1
 d    4 1.00
          27.559479426   0.036950140313562
          7.4687020327    0.18821519783039
          2.4345903574    0.44641244239929
         0.78244754808     0.5681617303244
 d    1 1.00
         0.21995774311                   1
 f    1 1.00
                 1.147                   1

3 0
 s    5 1.00
          2266.1767785  -0.0053893503921743
          340.87010191   -0.04023472138896
          77.363135167   -0.18008184205526
           21.47964494   -0.46828857657651
          6.6589433124   -0.44692617160187
 s    1 1.00
         0.80975975668                   1
 s    1 1.00
         0.25530772234                   1
 p    3 1.00
          17.721504317   0.062630248763161
           3.863550544    0.33331138482352
          1.0480920883    0.74148638308122
 p    1 1.00
         0.27641544411                   1
 d    1 1.00
                   1.2                   1

4 0
 s    5 1.00
          2266.1767785  -0.0053893503921743
          340.87010191   -0.04023472138896
          77.363135167   -0.18008184205526
           21.47964494   -0.46828857657651
          6.6589433124   -0.44692617160187
 s    1 1.00
         0.80975975668                   1
 s    1 1.00
         0.25530772234                   1
 p    3 1.00
          17.721504317   0.062630248763161
           3.863550544    0.33331138482352
          1.0480920883    0.74148638308122
 p    1 1.00
         0.27641544411                   1
 d    1 1.00
                   1.2                   1

5 0
 s    5 1.00
          2266.1767785  -0.0053893503921743
          340.87010191   -0.04023472138896
          77.363135167   -0.18008184205526
           21.47964494   -0.46828857657651
          6.6589433124   -0.44692617160187
 s    1 1.00
         0.80975975668                   1
 s    1 1.00
         0.25530772234                   1
 p    3 1.00
          17.721504317   0.062630248763161
           3.863550544    0.33331138482352
          1.0480920883    0.74148638308122
 p    1 1.00
         0.27641544411                   1
 d    1 1.00
                   1.2                   1

6 0
 s    3 1.00
             13.010701   0.033485484812989
             1.9622572    0.23472187088125
            0.44453796    0.81377028525955
 s    1 1.00
            0.12194962                   1
 p    1 1.00
                   0.8                   1

7 0
 s    3 1.00
             13.010701   0.033485484812989
             1.9622572    0.23472187088125
            0.44453796    0.81377028525955
 s    1 1.00
            0.12194962                   1
 p    1 1.00
                   0.8                   1

8 0
 s    3 1.00
             13.010701   0.033485484812989
             1.9622572    0.23472187088125
            0.44453796    0.81377028525955
 s    1 1.00
            0.12194962                   1
 p    1 1.00
                   0.8                   1

9 0
 s    5 1.00
          1712.8415853  -0.0054477995804909
          257.64812677  -0.040627174632423
          58.458245853   -0.18111962250584
          16.198367905   -0.46843975563173
          5.0052600809   -0.44616846289231
 s    1 1.00
         0.58731856571                   1
 s    1 1.00
         0.18764592253                   1
 p    3 1.00
          13.571470233  -0.058848116969522
          2.9257372874   -0.32024624762471
         0.79927750754   -0.75328226520436
 p    1 1.00
         0.21954348034                   1
 d    1 1.00
                     1                   1

10 0
 s    3 1.00
             13.010701   0.033485484812989
             1.9622572    0.23472187088125
            0.44453796    0.81377028525955
 s    1 1.00
            0.12194962                   1
 p    1 1.00
                   0.8                   1

11 0
 s    3 1.00
             13.010701   0.033485484812989
             1.9622572    0.23472187088125
            0.44453796    0.81377028525955
 s    1 1.00
            0.12194962                   1
 p    1 1.00
                   0.8                   1

12 0
 s    3 1.00
             13.010701   0.033485484812989
             1.9622572    0.23472187088125
            0.44453796    0.81377028525955
 s    1 1.00
            0.12194962                   1
 p    1 1.00
                   0.8                   1

13 0
 s    5 1.00
          1712.8415853  -0.0054477995804909
          257.64812677  -0.040627174632423
          58.458245853   -0.18111962250584
          16.198367905   -0.46843975563173
          5.0052600809   -0.44616846289231
 s    1 1.00
         0.58731856571                   1
 s    1 1.00
         0.18764592253                   1
 p    3 1.00
          13.571470233  -0.058848116969522
          2.9257372874   -0.32024624762471
         0.79927750754   -0.75328226520436
 p    1 1.00
         0.21954348034                   1
 d    1 1.00
                     1                   1

14 0
 s    5 1.00
          1712.8415853  -0.0054477995804909
          257.64812677  -0.040627174632423
          58.458245853   -0.18111962250584
          16.198367905   -0.46843975563173
          5.0052600809   -0.44616846289231
 s    1 1.00
         0.58731856571                   1
 s    1 1.00
         0.18764592253                   1
 p    3 1.00
          13.571470233  -0.058848116969522
          2.9257372874   -0.32024624762471
         0.79927750754   -0.75328226520436
 p    1 1.00
         0.21954348034                   1
 d    1 1.00
                     1                   1

15 0
 s    3 1.00
             13.010701   0.033485484812989
             1.9622572    0.23472187088125
            0.44453796    0.81377028525955
 s    1 1.00
            0.12194962                   1
 p    1 1.00
                   0.8                   1

16 0
 s    3 1.00
             13.010701   0.033485484812989
             1.9622572    0.23472187088125
            0.44453796    0.81377028525955
 s    1 1.00
            0.12194962                   1
 p    1 1.00
                   0.8                   1

17 0
 s    5 1.00
          1712.8415853  -0.0054477995804909
          257.64812677  -0.040627174632423
          58.458245853   -0.18111962250584
          16.198367905   -0.46843975563173
          5.0052600809   -0.44616846289231
 s    1 1.00
         0.58731856571                   1
 s    1 1.00
         0.18764592253                   1
 p    3 1.00
          13.571470233  -0.058848116969522
          2.9257372874   -0.32024624762471
         0.79927750754   -0.75328226520436
 p    1 1.00
         0.21954348034                   1
 d    1 1.00
                     1                   1

18 0
 s    5 1.00
          1712.8415853  -0.0054477995804909
          257.64812677  -0.040627174632423
          58.458245853   -0.18111962250584
          16.198367905   -0.46843975563173
          5.0052600809   -0.44616846289231
 s    1 1.00
         0.58731856571                   1
 s    1 1.00
         0.18764592253                   1
 p    3 1.00
          13.571470233  -0.058848116969522
          2.9257372874   -0.32024624762471
         0.79927750754   -0.75328226520436
 p    1 1.00
         0.21954348034                   1
 d    1 1.00
                     1                   1

19 0
 s    5 1.00
          1712.8415853  -0.0054477995804909
          257.64812677  -0.040627174632423
          58.458245853   -0.18111962250584
          16.198367905   -0.46843975563173
          5.0052600809   -0.44616846289231
 s    1 1.00
         0.58731856571                   1
 s    1 1.00
         0.18764592253                   1
 p    3 1.00
          13.571470233  -0.058848116969522
          2.9257372874   -0.32024624762471
         0.79927750754   -0.75328226520436
 p    1 1.00
         0.21954348034                   1
 d    1 1.00
                     1                   1

20 0
 s    3 1.00
             13.010701   0.033485484812989
             1.9622572    0.23472187088125
            0.44453796    0.81377028525955
 s    1 1.00
            0.12194962                   1
 p    1 1.00
                   0.8                   1

21 0
 s    3 1.00
             13.010701   0.033485484812989
             1.9622572    0.23472187088125
            0.44453796    0.81377028525955
 s    1 1.00
            0.12194962                   1
 p    1 1.00
                   0.8                   1

22 0
 s    3 1.00
             13.010701   0.033485484812989
             1.9622572    0.23472187088125
            0.44453796    0.81377028525955
 s    1 1.00
            0.12194962                   1
 p    1 1.00
                   0.8                   1

23 0
 s    3 1.00
             13.010701   0.033485484812989
             1.9622572    0.23472187088125
            0.44453796    0.81377028525955
 s    1 1.00
            0.12194962                   1
 p    1 1.00
                   0.8                   1

24 0
 s    3 1.00
             13.010701   0.033485484812989
             1.9622572    0.23472187088125
            0.44453796    0.81377028525955
 s    1 1.00
            0.12194962                   1
 p    1 1.00
                   0.8                   1

25 0
 s    3 1.00
             13.010701   0.033485484812989
             1.9622572    0.23472187088125
            0.44453796    0.81377028525955
 s    1 1.00
            0.12194962                   1
 p    1 1.00
                   0.8                   1

26 0
 s    3 1.00
             13.010701   0.033485484812989
             1.9622572    0.23472187088125
            0.44453796    0.81377028525955
 s    1 1.00
            0.12194962                   1
 p    1 1.00
                   0.8                   1

27 0
 s    3 1.00
             13.010701   0.033485484812989
             1.9622572    0.23472187088125
            0.44453796    0.81377028525955
 s    1 1.00
            0.12194962                   1
 p    1 1.00
                   0.8                   1

28 0
 s    3 1.00
             13.010701   0.033485484812989
             1.9622572    0.23472187088125
            0.44453796    0.81377028525955
 s    1 1.00
            0.12194962                   1
 p    1 1.00
                   0.8                   1

29 0
 s    3 1.00
             13.010701   0.033485484812989
             1.9622572    0.23472187088125
            0.44453796    0.81377028525955
 s    1 1.00
            0.12194962                   1
 p    1 1.00
                   0.8                   1

30 0
 s    3 1.00
             13.010701   0.033485484812989
             1.9622572    0.23472187088125
            0.44453796    0.81377028525955
 s    1 1.00
            0.12194962                   1
 p    1 1.00
                   0.8                   1

31 0
 s    3 1.00
             13.010701   0.033485484812989
             1.9622572    0.23472187088125
            0.44453796    0.81377028525955
 s    1 1.00
            0.12194962                   1
 p    1 1.00
                   0.8                   1

32 0
 s    3 1.00
             13.010701   0.033485484812989
             1.9622572    0.23472187088125
            0.44453796    0.81377028525955
 s    1 1.00
            0.12194962                   1
 p    1 1.00
                   0.8                   1

[5d]
[7f]
[9g]

[MO]
 Sym= A
 Ene=               0
 Spin= Alpha
 Occup=    1.00000
   1    -3.0300962816584e-07
   2    6.8295037511619e-07
   3    -4.064648354616e-06
   4    2.8207179240582e-05
   5    -3.8319060329603e-06
   6    7.1193846444793e-07
   7    0.00064420904376402
   8    0.00026827314225103
   9    -2.4363613488152e-06
  10    -0.0019136472998701
  11    -0.00083839791706429
  12    1.6376333547389e-05
  13     0.014158293512356
  14    0.0057635334211503
  15    0.0016942463587918
  16    -0.000685174059208
  17    0.0040696238192019
  18    0.00097828574900349
  19    0.0090927622926207
  20    -0.0098856185548321
  21    0.0048350842509897
  22    -0.026050362651654
  23    -0.0057048650300548
  24    -0.051905924499424
  25    4.2280835819298e-05
  26    -2.5501162865409e-05
  27    0.0008871245773263
  28    -5.5597072986386e-05
  29    8.0562440492528e-05
  30    -1.8140899205124e-05
  31    -0.0034351978442543
  32    1.9388373815838e-07
  33    -2.5489279573982e-07
  34    3.4240992063826e-06
  35    -2.7339622895783e-05
  36    -9.5247799687814e-07
  37    1.824980336724e-06
  38    0.00018242260609576
  39    -0.00031004895448103
  40    -6.0205308130864e-06
  41    -0.00052955409629782
  42    0.00086586172776994
  43    5.1018531482511e-05
  44    -0.0078634270081015
  45    -0.0050832915735804
  46    0.0018561189056066
  47    -3.1452912224014e-05
  48    0.0085221494648535
  49    0.0010712519380398
  50       1.0798995298036
  51    -0.011066283102056
  52    0.00048541450709173
  53    -0.054040605984673
  54    -0.006397426207392
  55     -0.36525942119235
  56    4.4672407701953e-05
  57    0.00017847179991488
  58    -0.00021787854755523
  59    -5.738623378763e-05
  60    -7.2755164418539e-05
  61    0.00013956501473906
  62    0.00084145147418027
  63    -0.00016983746905958
  64    0.0023144844927513
  65    -0.0023153245328436
  66    0.0035477170607241
  67    0.0025590282976437
  68    -0.00081856177015017
  69    0.0040831133283865
  70    -0.027387080266547
  71    -0.0098227316624341
  72    0.0016442852689385
  73    -0.0010923260681753
  74    0.0075844007122961
  75    0.0022105697339422
  76    -0.0052882703108914
  77    -0.0030937587749445
  78     -0.01129320541218
  79     -0.07410175112903
  80    -0.0024058702914527
  81     0.018668375563514
  82    -0.0068098743409881
  83     -0.01809432556138
  84     0.019527176816843
  85    -0.019684664849348
  86    -0.00093988986312063
  87     -0.00491868099592
  88    0.0036451603201679
  89    -0.00098925886563502
  90    0.0059002748460768
  91    0.0032644282515496
  92    0.0089788474909912
  93     0.076437445505458
  94    -0.0011281200939675
  95     0.015811203427366
  96     0.010140320169468
  97     0.014012786680054
  98    0.0046363168873647
  99     0.025890843645568
 100     0.003838236692846
 101    0.0066837937069847
 102    0.0022895955112381
 103    0.0013997024270463
 104    0.0036232807482614
 105     0.013800794089545
 106    0.0010347366638057
 107    -0.00080882290367843
 108    -9.5519278302043e-05
 109    -0.0011378047734122
 110    0.00056559404815979
 111    -0.0070931083820828
 112    -0.0011275561025744
 113    0.0041509148534388
 114    -0.0011223001564052
 115    -0.014367008167737
 116    0.0060701201312481
 117    0.0019432826758556
 118    0.0020147106308781
 119    0.0025629065119604
 120    -0.0010489490114432
 121    -0.0010676814916815
 122    0.0046911105281521
 123    0.0041744034008958
 124    0.0044072941673901
 125    -0.0012333704010514
 126    -0.0047423749725909
 127    -0.0015041243196161
 128    -0.004130684790593
 129    -0.00011391382777828
 130    -0.00094526660831205
 131    -0.00088121453409829
 132    -0.00010702907606568
 133    0.0010666722850498
 134    0.0023772268056889
 135    -0.0036620954154265
 136    -0.0001944114542696
 137    -0.00020560439790545
 138    0.00066068621601221
 139    0.0013260074739473
 140    0.0028624360866402
 141    0.0016975954675757
 142    0.00087476236354711
 143    -8.469830935782e-05
 144    0.0009206351746095
 145    0.0019201547707588
 146    0.00079492727917719
 147    -0.00020558096359336
 148    0.00056915962867526
 149    0.0011382627830149
 150    0.0011872740702791
 151    -0.0042526897446089
 152    -0.0043026921124158
 153     0.004310567839092
 154    0.0021949394330499
 155    0.0051078529382648
 156    -0.0046765031835341
 157    0.0054609754752885
 158    -0.00034168012325109
 159    0.00066475843649524
 160    -0.00086764914344765
 161    -0.00026455255457851
 162    0.00094791079977226
 163    -8.9038791342138e-05
 164    -0.00011636053535886
 165    -0.00044346829119939
 166    0.00012738544687922
 167    0.0013902968493056
 168    0.00039640093148098
 169    -0.00037250632370023
 170    -0.011396904943342
 171    -0.0020817124508612
 172    -0.00030877528550979
 173    -0.00024314978006028
 174    -0.0011134554460292
 175    -6.9709308900332e-05
 176    -0.00038700828504932
 177    -0.00034580155322529
 178    -0.001129021190585
 179    -0.00023875636869413
 180    0.00065095061644351
 181    0.00094722136058951
 182    -0.0018060010439032
 183    -0.0012395224207054
 184    -0.00088350455366705
 185    -0.00021967932529725
 186    -6.7318416468959e-05
 187    -0.0016333994721626
 188    -0.0056088211132338
 189    -0.078101622507977
 190    -0.012063889883092
 191     0.012000303576031
 192    -0.0042047129457691
 193     0.024563054781732
 194    -0.035135401205419
 195     0.032534243052438
 196    0.0022531341991021
 197    -0.0071693793128879
 198    0.0082663549899452
 199    0.00084017200060869
 200     0.010405936132925
 201    0.0017776167903434
 202     0.005831062148192
 203     0.076136962367091
 204       0.0120761120431
 205      0.01035039780976
 206     0.007088744021254
 207    -0.022221589510812
 208    -0.022575722568159
 209    -0.040314219152451
 210    0.0020693208009114
 211    0.0075213924242062
 212    0.0083737554198954
 213    0.0011403098359672
 214    0.0082999942137194
 215    -0.00014608229783559
 216    -0.0002273216859003
 217    0.0019462245215502
 218    -1.7771951861171e-05
 219    0.0013938712603128
 220    1.9448338700954e-05
 221    -0.0023476950953413
 222     0.034229764396282
 223    0.0069772842535654
 224     0.001744957305358
 225    -0.0016469209671414
 226    0.0083121611163562
 227    0.0015231474660524
 228    -0.0033693265870778
 229    -0.001897299121565
 230    0.00020968569013324
 231    -0.00027368588448352
 232    0.00073489466172542
 233    -0.00068294370896961
 234    -0.0005750260132505
 235    -0.00078994108381501
 236    -0.00055545351356962
 237    0.00054999457073834
 238    1.5719868700976e-05
 239    -0.00047789784304602
 240    0.0034495940551404
 241    0.00046755812832279
 242    0.0014282441447932
 243    0.00080345788102356
 244    0.0004805064485215
 245    -0.0016278723545306
 246    -0.0008138071428054
 247    0.00031292367798033
 248    -0.0010238512091579
 249    -0.0011977054140079
 250    0.00028156591767436
 251    -0.002466784236163
 252    -0.0014831789448943
 253    -0.0012995929621443
 254    0.0040896199695132
 255    -0.0068704516026637
 256    0.0083731450431522
 257    -0.0067961331922943
 258    -0.00062121522348268
 259    0.0032323040874267
 260    -0.0093116790967884
 261    0.0036229629600619
 262     0.000861608140792
 263    -0.0012285100395653
 264    -0.0013236409142792
 265    -0.0020893415094184
 266    0.0016991765918819
 267    -0.0018428825587853
 268    0.0028159085465557
 269    0.0012010369663387
 270     0.011043473241039
 271    -0.0038998014620865
 272    0.0012751052666797
 273    -0.0015736111634515
 274    -0.0088558701124851
 275    0.0025855225151937
 276    -0.0044981773537049
 277    -0.002935069557123
 278    0.00025319869350094
 279    0.0025185267293394
 280    0.0018163791220456
 281    0.00076764854144842
 282    -0.0052268037117649
 283    0.0004471136903029
 284    -0.0052895397237562
 285    -0.0041709345206678
 286    -0.0044705527586867
 287    -0.0019358855978352
 288    0.0058903290558773
 289    0.0056238635808114
 290    0.0067266072681805
 291    0.00087762098209592
 292    -0.0023186538100141
 293    -0.0037771269526071
 Sym= A
 Ene=               1
 Spin= Alpha
 Occup=    1.00000
   1    -9.1335438081797e-08
   2    1.4403666037537e-07
   3    -2.6241333676431e-06
   4    2.4688991530306e-05
   5    1.3117465246162e-05
   6    1.3249584564514e-07
   7    -0.0008774124868057
   8    -0.00020983690056602
   9    -9.3719736837575e-07
  10     0.002830903576638
  11    0.0009509230320488
  12    1.9352062345438e-05
  13    -0.034308382677905
  14    -0.016667787497802
  15    0.00056376946052201
  16    -0.00042186986955193
  17    0.0048141078551253
  18    0.00032543868813909
  19    0.0013655053857111
  20    -0.004547758210169
  21    -0.0050157969005976
  22    -0.020894049424927
  23    -0.0026218051358817
  24    -0.020212916090593
  25    0.00032164893729746
  26    -0.00021269838368258
  27    0.0001919053588456
  28    -0.000415729441319
  29    3.6373278096914e-06
  30    -0.00016360545589795
  31    -0.00074243268927166
  32    4.6780568773263e-07
  33    -7.627480918166e-07
  34    6.193714316709e-06
  35    -4.6036287822222e-05
  36    1.0250840183149e-05
  37    1.5688567580423e-06
  38    -0.00096893659099575
  39    0.00038573766062081
  40    -4.7030043701901e-06
  41     0.003029146489848
  42    -0.0011054754974926
  43    3.4416748135017e-05
  44    -0.026603407326183
  45    0.0057435063140017
  46    6.9149608408721e-05
  47    0.0020130716874462
  48       1.0677662579775
  49    4.0846775713426e-05
  50    0.0078713807932191
  51    -4.3811030713893e-05
  52    -0.012492698157712
  53     -0.28599733745517
  54    -3.1753769144142e-05
  55    -0.053366707235643
  56    -8.7116351733492e-06
  57     0.000114249695929
  58    -0.00011643162716227
  59    1.1614465027088e-05
  60    0.00055120069911167
  61    8.9716427604295e-05
  62    0.00044997233471239
  63    -0.00037964993267893
  64    -0.004980379745661
  65    -0.00022214464232286
  66    -0.0043904471699664
  67    -0.00076695691613208
  68    -5.4697535922649e-06
  69    -0.015301709922097
  70     0.046172920734482
  71    0.0020744642279398
  72    0.00080108192933757
  73    0.00091216429815655
  74    -0.0044357175011689
  75    -0.0031775264372524
  76    0.0071276492708152
  77     0.001017547815329
  78    0.0013016223552472
  79    -0.027174353088286
  80    -0.0066632402403314
  81    -0.002147214888627
  82    -0.0019281513111017
  83    -0.028765237557889
  84    0.0058247778913025
  85      0.03311934465553
  86    0.0031788550078318
  87    0.0038313831874746
  88    -0.0012496285454274
  89    -0.0032443782633745
  90    0.0048791103080786
  91    -0.0006334518420523
  92    0.0036883792229094
  93     0.027444321637464
  94     0.011069827380812
  95    0.00020857690827664
  96    -0.0021522186587363
  97      0.04407918607886
  98    -0.00090572338358069
  99    -0.017336256710683
 100    -0.0060632046024355
 101    0.00042664839337344
 102    -0.0010941271182914
 103    0.0052141011322531
 104    0.0034746839578177
 105    -0.012407606614259
 106    0.0075515790911231
 107     0.004567570082394
 108    2.7436248061023e-05
 109    -0.00058395792521073
 110      0.01348908382186
 111    -0.0054323046761285
 112    -0.0024130122707161
 113    0.0013444836872225
 114    -0.00037718929656256
 115    -0.0010968956455925
 116    -0.0021629929841063
 117    -0.0021788678276381
 118    0.00048289643693676
 119    0.00062949045150881
 120    0.00056297457321776
 121    0.00083974316604239
 122    -0.0016571840887584
 123    -0.0020514380264809
 124    -0.0023122432704087
 125    0.0012628922106399
 126    -0.0012827427829974
 127    0.0068166008625386
 128    -0.00069517749590016
 129    0.00027651452495809
 130    -0.0001815157327799
 131    -0.00018547590503947
 132    -0.00043211527191592
 133    7.1131485956548e-06
 134    -0.0001828830749983
 135    -0.00049679713182575
 136    -0.00079774885538347
 137    -0.00073313695856569
 138    7.4201671395405e-05
 139    -0.00029123812135538
 140    -0.00022187253801809
 141    5.030760180229e-05
 142    -0.00065440379066718
 143    0.00049742385064847
 144    -0.0019359161120118
 145    -0.00029657401336758
 146    -0.00017332176076436
 147    -0.0001053462692671
 148    0.00052353975263293
 149    -0.0012995943682065
 150    -0.0025583127918651
 151    0.0018756571527165
 152    0.0048114160794108
 153    -0.0042788575949336
 154    -0.0036993816562673
 155    0.00037133849472467
 156     0.006665998149823
 157    0.0063371285939645
 158    -0.00035691027382851
 159    0.00014624256604569
 160    -0.0003424941347678
 161    0.0005694824338691
 162    0.00020030109425776
 163    0.0007371080383237
 164    0.0017208528190047
 165    -0.00021452990729285
 166    -0.0027613588112519
 167    0.0010025086037125
 168    -0.0029227889988274
 169    0.00090680508702201
 170    0.00065433998070722
 171    0.0026882966562206
 172    0.00019673710687749
 173    0.00014954933039846
 174    -0.00030526020198088
 175    -7.027956820138e-05
 176    -0.0001803373329382
 177    0.00012300179887161
 178    -0.000910425047511
 179    0.00013358951440479
 180    2.5192869279561e-05
 181    -0.00021990957527111
 182    0.0021571301600334
 183    0.0003111355480906
 184    -0.00014042329049212
 185    -0.0005192759170663
 186    -0.00060814974558034
 187    -0.0014641482373284
 188    -0.0031237819866303
 189    -0.050891544646558
 190    -0.0072955064379273
 191    0.0082342611708358
 192    -0.0050053144864879
 193     0.032498462260565
 194    -0.018882906062893
 195    -0.019716896839829
 196    0.0062697096618809
 197    0.00088154937636196
 198    -0.00020458113903736
 199    -0.0032376252289851
 200    0.0074426565785517
 201     0.001333935205839
 202    0.0029215675914877
 203     0.053144241557555