[Molden Format]
made by pyscf v[2.2.1]
[Atoms] (AU)
Cr   1   24    -2.49591247080304     0.00009448630623    -0.00013228082872
Cr   2   24     2.49589357354180     0.00009448630623    -0.00013228082872
O   3   8     0.00000000000000    -0.31337328323662     2.74894679888230
O   4   8     0.00000000000000     2.53746754828223    -1.10307093343112
O   5   8     0.00000000000000    -2.22388639517190    -1.64597035175741
H   6   1     0.00003779452249     0.94728191172197     4.08167614823181
H   7   1     0.00105824662976     3.05888078057222    -2.86195242113129
H   8   1    -0.00083147949481    -4.00771226771634    -1.21722928861609
N   9   7    -5.00739628487250    -2.73195816102246     1.34438895953808
H   10   1    -4.13275544537881    -4.12334460927847     2.35157518940876
H   11   1    -5.77114799537672    -3.48503291892289    -0.25713503376957
H   12   1    -6.36321808746420    -1.89940152232283     2.43247436480139
N   13   7    -5.00739628487250     2.53038107531511     1.69376152544767
N   14   7    -5.00739628487250     0.20176605831981    -3.03824497129197
H   15   1    -6.36321808746420    -1.15681474441375    -2.86125322246521
H   16   1    -5.77114799537672     1.51994451651017     3.14669635358076
N   17   7     5.00739628487250    -2.73193926376122     1.34438895953808
N   18   7     5.00737738761126     2.53039997257635     1.69376152544767
N   19   7     5.00739628487250     0.20178495558106    -3.03824497129197
H   20   1    -4.13277434264005     4.09830573812799     2.39513337657999
H   21   1    -6.36321808746420     3.05638634208779     0.42870326861883
H   22   1    -4.13275544537881     0.02520894650170    -4.74680305229498
H   23   1    -5.77116689263796     1.96527737502517    -2.88965580611742
H   24   1     4.13275544537881    -4.12332571201723     2.35157518940876
H   25   1     5.77114799537672    -3.48501402166164    -0.25715393103081
H   26   1     6.36321808746420    -1.89936372780034     2.43245546754015
H   27   1     4.13273654811756     4.09832463538923     2.39513337657999
H   28   1     5.77114799537672     1.51996341377142     3.14669635358076
H   29   1     6.36319919020295     3.05640523934904     0.42868437135758
H   30   1     4.13275544537881     0.02522784376294    -4.74680305229498
H   31   1     5.77114799537672     1.96529627228642    -2.88965580611742
H   32   1     6.36321808746420    -1.15679584715250    -2.86125322246521
[GTO]
1 0
 s    6 1.00
          51528.086349  0.0017695545768669
          7737.2103487   0.013556436258096
           1760.374847   0.067162645785071
          496.87706544    0.23295905918518
          161.46520598    0.47040576982722
          55.466352268    0.35733072606876
 s    3 1.00
          107.54732999   -0.10605255446629
          12.408671897    0.62543981484169
          5.0423628826    0.44878820793655
 s    3 1.00
          8.5461640165   -0.21819012081133
          1.3900441221    0.70422525667731
         0.56066602876    0.42488555412558
 s    1 1.00
        0.071483705972                   1
 s    1 1.00
        0.028250687604                   1
 p    5 1.00
          640.48536096  0.0093555063746755
          150.69711194   0.068993338492216
          47.503755296     0.2634118959318
          16.934120165    0.51034501651775
           6.240968059    0.33195512953954
 p    3 1.00
          3.0885463206    0.32917682676976
          1.1791047769    0.55491385190365
         0.43369774432    0.23818412855984
 p    1 1.00
              0.120675                   1
 d    4 1.00
          27.559479426   0.036950140313562
          7.4687020327    0.18821519783039
          2.4345903574    0.44641244239929
         0.78244754808     0.5681617303244
 d    1 1.00
         0.21995774311                   1
 f    1 1.00
                 1.147                   1

2 0
 s    6 1.00
          51528.086349  0.0017695545768669
          7737.2103487   0.013556436258096
           1760.374847   0.067162645785071
          496.87706544    0.23295905918518
          161.46520598    0.47040576982722
          55.466352268    0.35733072606876
 s    3 1.00
          107.54732999   -0.10605255446629
          12.408671897    0.62543981484169
          5.0423628826    0.44878820793655
 s    3 1.00
          8.5461640165   -0.21819012081133
          1.3900441221    0.70422525667731
         0.56066602876    0.42488555412558
 s    1 1.00
        0.071483705972                   1
 s    1 1.00
        0.028250687604                   1
 p    5 1.00
          640.48536096  0.0093555063746755
          150.69711194   0.068993338492216
          47.503755296     0.2634118959318
          16.934120165    0.51034501651775
           6.240968059    0.33195512953954
 p    3 1.00
          3.0885463206    0.32917682676976
          1.1791047769    0.55491385190365
         0.43369774432    0.23818412855984
 p    1 1.00
              0.120675                   1
 d    4 1.00
          27.559479426   0.036950140313562
          7.4687020327    0.18821519783039
          2.4345903574    0.44641244239929
         0.78244754808     0.5681617303244
 d    1 1.00
         0.21995774311                   1
 f    1 1.00
                 1.147                   1

3 0
 s    5 1.00
          2266.1767785  -0.0053893503921743
          340.87010191   -0.04023472138896
          77.363135167   -0.18008184205526
           21.47964494   -0.46828857657651
          6.6589433124   -0.44692617160187
 s    1 1.00
         0.80975975668                   1
 s    1 1.00
         0.25530772234                   1
 p    3 1.00
          17.721504317   0.062630248763161
           3.863550544    0.33331138482352
          1.0480920883    0.74148638308122
 p    1 1.00
         0.27641544411                   1
 d    1 1.00
                   1.2                   1

4 0
 s    5 1.00
          2266.1767785  -0.0053893503921743
          340.87010191   -0.04023472138896
          77.363135167   -0.18008184205526
           21.47964494   -0.46828857657651
          6.6589433124   -0.44692617160187
 s    1 1.00
         0.80975975668                   1
 s    1 1.00
         0.25530772234                   1
 p    3 1.00
          17.721504317   0.062630248763161
           3.863550544    0.33331138482352
          1.0480920883    0.74148638308122
 p    1 1.00
         0.27641544411                   1
 d    1 1.00
                   1.2                   1

5 0
 s    5 1.00
          2266.1767785  -0.0053893503921743
          340.87010191   -0.04023472138896
          77.363135167   -0.18008184205526
           21.47964494   -0.46828857657651
          6.6589433124   -0.44692617160187
 s    1 1.00
         0.80975975668                   1
 s    1 1.00
         0.25530772234                   1
 p    3 1.00
          17.721504317   0.062630248763161
           3.863550544    0.33331138482352
          1.0480920883    0.74148638308122
 p    1 1.00
         0.27641544411                   1
 d    1 1.00
                   1.2                   1

6 0
 s    3 1.00
             13.010701   0.033485484812989
             1.9622572    0.23472187088125
            0.44453796    0.81377028525955
 s    1 1.00
            0.12194962                   1
 p    1 1.00
                   0.8                   1

7 0
 s    3 1.00
             13.010701   0.033485484812989
             1.9622572    0.23472187088125
            0.44453796    0.81377028525955
 s    1 1.00
            0.12194962                   1
 p    1 1.00
                   0.8                   1

8 0
 s    3 1.00
             13.010701   0.033485484812989
             1.9622572    0.23472187088125
            0.44453796    0.81377028525955
 s    1 1.00
            0.12194962                   1
 p    1 1.00
                   0.8                   1

9 0
 s    5 1.00
          1712.8415853  -0.0054477995804909
          257.64812677  -0.040627174632423
          58.458245853   -0.18111962250584
          16.198367905   -0.46843975563173
          5.0052600809   -0.44616846289231
 s    1 1.00
         0.58731856571                   1
 s    1 1.00
         0.18764592253                   1
 p    3 1.00
          13.571470233  -0.058848116969522
          2.9257372874   -0.32024624762471
         0.79927750754   -0.75328226520436
 p    1 1.00
         0.21954348034                   1
 d    1 1.00
                     1                   1

10 0
 s    3 1.00
             13.010701   0.033485484812989
             1.9622572    0.23472187088125
            0.44453796    0.81377028525955
 s    1 1.00
            0.12194962                   1
 p    1 1.00
                   0.8                   1

11 0
 s    3 1.00
             13.010701   0.033485484812989
             1.9622572    0.23472187088125
            0.44453796    0.81377028525955
 s    1 1.00
            0.12194962                   1
 p    1 1.00
                   0.8                   1

12 0
 s    3 1.00
             13.010701   0.033485484812989
             1.9622572    0.23472187088125
            0.44453796    0.81377028525955
 s    1 1.00
            0.12194962                   1
 p    1 1.00
                   0.8                   1

13 0
 s    5 1.00
          1712.8415853  -0.0054477995804909
          257.64812677  -0.040627174632423
          58.458245853   -0.18111962250584
          16.198367905   -0.46843975563173
          5.0052600809   -0.44616846289231
 s    1 1.00
         0.58731856571                   1
 s    1 1.00
         0.18764592253                   1
 p    3 1.00
          13.571470233  -0.058848116969522
          2.9257372874   -0.32024624762471
         0.79927750754   -0.75328226520436
 p    1 1.00
         0.21954348034                   1
 d    1 1.00
                     1                   1

14 0
 s    5 1.00
          1712.8415853  -0.0054477995804909
          257.64812677  -0.040627174632423
          58.458245853   -0.18111962250584
          16.198367905   -0.46843975563173
          5.0052600809   -0.44616846289231
 s    1 1.00
         0.58731856571                   1
 s    1 1.00
         0.18764592253                   1
 p    3 1.00
          13.571470233  -0.058848116969522
          2.9257372874   -0.32024624762471
         0.79927750754   -0.75328226520436
 p    1 1.00
         0.21954348034                   1
 d    1 1.00
                     1                   1

15 0
 s    3 1.00
             13.010701   0.033485484812989
             1.9622572    0.23472187088125
            0.44453796    0.81377028525955
 s    1 1.00
            0.12194962                   1
 p    1 1.00
                   0.8                   1

16 0
 s    3 1.00
             13.010701   0.033485484812989
             1.9622572    0.23472187088125
            0.44453796    0.81377028525955
 s    1 1.00
            0.12194962                   1
 p    1 1.00
                   0.8                   1

17 0
 s    5 1.00
          1712.8415853  -0.0054477995804909
          257.64812677  -0.040627174632423
          58.458245853   -0.18111962250584
          16.198367905   -0.46843975563173
          5.0052600809   -0.44616846289231
 s    1 1.00
         0.58731856571                   1
 s    1 1.00
         0.18764592253                   1
 p    3 1.00
          13.571470233  -0.058848116969522
          2.9257372874   -0.32024624762471
         0.79927750754   -0.75328226520436
 p    1 1.00
         0.21954348034                   1
 d    1 1.00
                     1                   1

18 0
 s    5 1.00
          1712.8415853  -0.0054477995804909
          257.64812677  -0.040627174632423
          58.458245853   -0.18111962250584
          16.198367905   -0.46843975563173
          5.0052600809   -0.44616846289231
 s    1 1.00
         0.58731856571                   1
 s    1 1.00
         0.18764592253                   1
 p    3 1.00
          13.571470233  -0.058848116969522
          2.9257372874   -0.32024624762471
         0.79927750754   -0.75328226520436
 p    1 1.00
         0.21954348034                   1
 d    1 1.00
                     1                   1

19 0
 s    5 1.00
          1712.8415853  -0.0054477995804909
          257.64812677  -0.040627174632423
          58.458245853   -0.18111962250584
          16.198367905   -0.46843975563173
          5.0052600809   -0.44616846289231
 s    1 1.00
         0.58731856571                   1
 s    1 1.00
         0.18764592253                   1
 p    3 1.00
          13.571470233  -0.058848116969522
          2.9257372874   -0.32024624762471
         0.79927750754   -0.75328226520436
 p    1 1.00
         0.21954348034                   1
 d    1 1.00
                     1                   1

20 0
 s    3 1.00
             13.010701   0.033485484812989
             1.9622572    0.23472187088125
            0.44453796    0.81377028525955
 s    1 1.00
            0.12194962                   1
 p    1 1.00
                   0.8                   1

21 0
 s    3 1.00
             13.010701   0.033485484812989
             1.9622572    0.23472187088125
            0.44453796    0.81377028525955
 s    1 1.00
            0.12194962                   1
 p    1 1.00
                   0.8                   1

22 0
 s    3 1.00
             13.010701   0.033485484812989
             1.9622572    0.23472187088125
            0.44453796    0.81377028525955
 s    1 1.00
            0.12194962                   1
 p    1 1.00
                   0.8                   1

23 0
 s    3 1.00
             13.010701   0.033485484812989
             1.9622572    0.23472187088125
            0.44453796    0.81377028525955
 s    1 1.00
            0.12194962                   1
 p    1 1.00
                   0.8                   1

24 0
 s    3 1.00
             13.010701   0.033485484812989
             1.9622572    0.23472187088125
            0.44453796    0.81377028525955
 s    1 1.00
            0.12194962                   1
 p    1 1.00
                   0.8                   1

25 0
 s    3 1.00
             13.010701   0.033485484812989
             1.9622572    0.23472187088125
            0.44453796    0.81377028525955
 s    1 1.00
            0.12194962                   1
 p    1 1.00
                   0.8                   1

26 0
 s    3 1.00
             13.010701   0.033485484812989
             1.9622572    0.23472187088125
            0.44453796    0.81377028525955
 s    1 1.00
            0.12194962                   1
 p    1 1.00
                   0.8                   1

27 0
 s    3 1.00
             13.010701   0.033485484812989
             1.9622572    0.23472187088125
            0.44453796    0.81377028525955
 s    1 1.00
            0.12194962                   1
 p    1 1.00
                   0.8                   1

28 0
 s    3 1.00
             13.010701   0.033485484812989
             1.9622572    0.23472187088125
            0.44453796    0.81377028525955
 s    1 1.00
            0.12194962                   1
 p    1 1.00
                   0.8                   1

29 0
 s    3 1.00
             13.010701   0.033485484812989
             1.9622572    0.23472187088125
            0.44453796    0.81377028525955
 s    1 1.00
            0.12194962                   1
 p    1 1.00
                   0.8                   1

30 0
 s    3 1.00
             13.010701   0.033485484812989
             1.9622572    0.23472187088125
            0.44453796    0.81377028525955
 s    1 1.00
            0.12194962                   1
 p    1 1.00
                   0.8                   1

31 0
 s    3 1.00
             13.010701   0.033485484812989
             1.9622572    0.23472187088125
            0.44453796    0.81377028525955
 s    1 1.00
            0.12194962                   1
 p    1 1.00
                   0.8                   1

32 0
 s    3 1.00
             13.010701   0.033485484812989
             1.9622572    0.23472187088125
            0.44453796    0.81377028525955
 s    1 1.00
            0.12194962                   1
 p    1 1.00
                   0.8                   1

[5d]
[7f]
[9g]

[MO]
 Sym= A
 Ene=               0
 Spin= Alpha
 Occup=    1.00000
   1    5.9510995875521e-07
   2    -9.6177026482943e-07
   3    8.3834280418185e-06
   4    -5.2915415219186e-05
   5    4.4832397345662e-06
   6    -5.074741134583e-07
   7    -0.00012231577529397
   8    0.00030740741216426
   9    1.5218458091512e-06
  10    0.00033780189558301
  11    -0.00082134400132222
  12    -1.1514511173121e-05
  13    0.0051156625907195
  14    0.0041460371062843
  15    -0.0015671691369021
  16    1.4436270633566e-05
  17    -0.0077828718031877
  18    -0.00090462006636929
  19       1.0809065295268
  20     0.011011038350439
  21    -0.00019184013512571
  22     0.054083470884507
  23    0.0063527905255894
  24     -0.36487902212636
  25    2.8185237580452e-05
  26    0.00015269509477082
  27    0.00024641258740918
  28    -3.6241189613739e-05
  29    -5.0014745513596e-06
  30    0.00011796772768553
  31    -0.00095220118351618
  32    8.5262211809984e-08
  33    -2.7461717688378e-07
  34    1.0483721154095e-06
  35    8.326173688399e-06
  36    2.2887930189394e-06
  37    2.8047276783486e-07
  38    0.00022406975720283
  39    7.5729829704659e-05
  40    -9.0283553013709e-07
  41    -0.00066131492041703
  42    -0.00025797820261705
  43    -6.9239822689455e-06
  44    0.0033762655597003
  45    0.0012236630236255
  46    0.00057838788649852
  47    -7.8852181342919e-05
  48    0.00076258922567823
  49    0.00033439820231327
  50    0.0020479668742483
  51    -0.0027109545697019
  52    0.00054312530043171
  53    -0.0025943974914457
  54    -0.0015629149272215
  55    -0.017128893345673
  56    -2.6743442623138e-05
  57    1.1755649872407e-05
  58    -0.00084937117548713
  59    3.4365517936736e-05
  60    -0.00032258200922975
  61    8.6127677458439e-06
  62    0.0032895393224788
  63    -0.00047348973819159
  64    -0.004052225469688
  65    -0.00022023647219067
  66     0.002376381145432
  67    -0.00076691298414925
  68    0.0020303650804193
  69    0.0030471822240211
  70     0.032926199352907
  71      0.01065991497408
  72    -0.0016713417461333
  73    -0.0010909081839276
  74    -0.0079415691299471
  75    -0.0023368788085728
  76    -0.004959867541658
  77    0.0016952378684694
  78    0.0088249348151798
  79     0.072667837508592
  80    -0.012215824013575
  81    -0.012176290237865
  82    0.0054217742692441
  83    -0.027648031187196
  84    -0.018034934210189
  85      0.02114530598078
  86    0.0011477230800522
  87    -0.0047874651329803
  88    -0.0036883638704665
  89    0.0006159169623831
  90    0.0058925958282071
  91    -0.0012184880736678
  92    -0.0047664725219515
  93    -0.072399508888781
  94    0.0098317088327674
  95    -0.0094069100212737
  96    -0.0061466594477791
  97      0.02458552695297
  98    -0.0016468974456635
  99    -0.028225631809424
 100    -0.0043754775059325
 101    0.0064568204517104
 102    -0.0024263032754016
 103    -0.0011117974405273
 104    0.0036719379021942
 105    -0.012727542242739
 106    -0.00015551887266556
 107    -0.00092761959721812
 108    -0.0001548575708419
 109    0.0011214605137593
 110      0.00139609157761
 111    0.0071986419359764
 112    -0.0016194732347225
 113    -0.0037127785555072
 114    0.0014721016905312
 115     0.011310480466184
 116    -0.0070519443121576
 117    0.0025631828105882
 118    -0.0022653422798085
 119    -0.0018146729932602
 120     0.001613984699794
 121    0.0054013066472358
 122     0.078176876723378
 123    -0.011981171978323
 124    -0.011572646127442
 125    0.0041860687937082
 126      0.02437470838197
 127     0.035693204534992
 128    -0.032480803337245
 129    -0.0022258057298197
 130    -0.0071397268986767
 131    -0.0082675331190889
 132    -0.00090640016518985
 133     0.010409085302717
 134    0.0014569374079028
 135    -0.0003095466949307
 136    -0.0026641928395571
 137    0.0013436926774618
 138     0.001281341792044
 139    -0.0040281118426609
 140    0.0064779654174433
 141    0.0082226077626285
 142    0.0065752518192052
 143    0.0007030295196992
 144    -0.0037085712669835
 145    0.0092728315872136
 146    0.0035245508798092
 147    -0.00094237997177639
 148    0.0012959270128852
 149    -0.001787813590457
 150    -0.0057654343577212
 151    -0.076030651445287
 152     0.012137963263918
 153    -0.010017547661072
 154    -0.0069851857609432
 155    -0.022112784058188
 156      0.02329306933929
 157     0.040284082739968
 158    -0.0020614123359932
 159    0.0075151803785469
 160      -0.0083982635934
 161    -0.0010571505893847
 162    0.0083402148077622
 163    0.00017471220282607
 164    0.00035925190586152
 165    -0.0021217146898209
 166    -0.00015875220641075
 167    -0.0011196830342623
 168    -5.6021672520804e-05
 169    -0.0022478562737459
 170    -0.033517587078325
 171    -0.0068253898481864
 172    -0.0017109483206957
 173    -0.0016020423290198
 174    -0.008274874125744
 175    -0.0015002801448684
 176    -0.0033169079553266
 177    -0.0052453869311653
 178    -0.0066456129291184
 179    0.00094285505149042
 180    0.0022684938070995
 181    0.0036896265666636
 182    -0.00077691968108128
 183    -0.010955729983028
 184    -0.0038476453139712
 185    -0.0013506249791293
 186    0.0014574113305387
 187    -0.00027423774944916
 188    -0.0011837434956658
 189    -0.0043749651264559
 190    -0.0013713288014117
 191    0.00067802518935476
 192    -0.00027215203924046
 193    -0.0010183834954331
 194    -0.0028558888273351
 195    0.0018160289769164
 196    0.0002343455143592
 197    -0.00068921996923558
 198    0.0005041850764034
 199    -5.9317669770508e-05
 200    0.00089450521958862
 201    0.00022185651621671
 202     0.001139580499883
 203    0.0024151446855984
 204    0.0011616944717202
 205    0.0005021015676348
 206    0.00036121944794358
 207    0.0019954026441665
 208    -0.0021373781360458
 209    -0.0028775906449355
 210    2.378610715586e-05
 211    0.00031385858840237
 212    0.00041723136563416
 213    0.00012243029384529
 214    0.00088816103988888
 215    5.2485996302732e-05
 216    4.4097695083024e-05
 217    0.0019637303164936
 218    0.0002098941360594
 219    4.1460584636732e-05
 220    -0.00010789831948084
 221    -0.00097736964278794
 222    0.0015677335116355
 223    9.1661569351515e-05
 224    0.00013838448408033
 225    -0.00019323955523896
 226    0.00038152053057699
 227    0.00016598099303045
 228    2.2612474089077e-05
 229    0.00089976998553827
 230    0.0023424728348393
 231    0.0019495356607202
 232    0.0017064780699076
 233    -0.0028756286568121
 234    0.0089555062392985
 235    -0.0026260869171239
 236    -0.0044674976788985
 237     0.002736447313395
 238    -0.00028705069778835
 239    -0.0023601726855329
 240    -0.0020229393818948
 241    0.00071520527914222
 242    0.0051241553232355
 243    -0.00048246996212666
 244     0.004801131353447
 245    0.0044820168908713
 246    -0.0043754680059355
 247    0.0019586581772398
 248    -0.0057834182606686
 249    -0.001943928418317
 250     0.003092508318138
 251    -3.3720898013722e-05
 252    0.00021387116321412
 253    -0.0002013619948929
 254    0.00040386436744558
 255    -8.9072527454558e-05
 256    0.00068709214674147
 257    6.1685157701715e-05
 258    3.6799119421295e-05
 259    0.0011234091458985
 260    -0.00063571497269912
 261    0.0002974851825534
 262    -2.2888322186415e-06
 263    -0.00047724751142504
 264    0.0015529581486636
 265    -0.00075902287497732
 266    6.5184549525573e-05
 267    -0.00023990902574876
 268    0.00026002614291832
 269     0.000248175871479
 270    -0.00011030086856901
 271    -0.00065071309865826
 272    8.5263904316676e-05
 273    0.0002681409410142
 274    -0.0014228315207008
 275    -0.00033752425656691
 276    -0.00018908505323573
 277    0.00028125924613786
 278    -0.00023761320646125
 279    0.00039097955969637
 280    -0.0023365210580631
 281    -3.1369029163259e-05
 282    -0.00041237435649436
 283    -0.000363953309857
 284    -0.00065155824168787
 285    0.00019562752103736
 286    -3.6038095154652e-05
 287    -0.00012675515064659
 288    0.00017285730890062
 289    0.00029906007475878
 290    0.00097245500902894
 291    -0.00010819225104181
 292    -6.8077185581796e-05
 293    -0.00011162945461732
 Sym= A
 Ene=               1
 Spin= Alpha
 Occup=    1.00000
   1    -3.0214573971116e-07
   2    5.0603004922144e-07
   3    -4.6637148828526e-06
   4    2.4679032875424e-05
   5    4.4229812144265e-06
   6    4.2419142585253e-07
   7    -0.00097920622096561
   8    0.00041625243391157
   9    -1.4609219151418e-06
  10    0.0030212132337158
  11    -0.0012136752185304
  12    1.0798693827099e-05
  13    -0.026134724058603
  14    0.0070767063808514
  15    2.0139885624185e-05
  16    -0.001812754351101
  17       1.0683767173422
  18    1.1273745126287e-05
  19    -0.0077845018193587
  20    0.00039131767722574
  21     0.013334614607213
  22     -0.28576825604686
  23    0.00022998329810759
  24     0.053052040372886
  25    -4.6295279228412e-06
  26    -8.6082225958122e-05
  27    -5.5802189736797e-05
  28    5.8098237204942e-06
  29    -0.00049259215782715
  30    -6.6440392597977e-05
  31    0.00021553986494701
  32    -2.980855653046e-08
  33    -9.4756784214879e-10
  34    -7.8306993831269e-07
  35    1.8415314201608e-06
  36    3.8161863197347e-06
  37    -8.1029845024543e-09
  38    -0.00016318760095622
  39    -0.00016718917290224
  40    6.7736185743037e-08
  41    0.0007192522950756
  42    0.00078221206918515
  43    -1.5357534635599e-06
  44    -0.019629035624606
  45    -0.015756752770762
  46    -2.7373125114274e-06
  47    -0.00078662253505584
  48    0.00034053451960279
  49    -2.0226497539764e-06
  50    -0.00069250812384268
  51    -0.0012692708865347
  52    0.0097659175092634
  53    0.0013450733314242
  54    -0.00073292049834705
  55     0.014183493125927
  56    0.00033753257576842
  57    0.00017071453218703
  58    0.00022231393756619
  59    -0.0004353434775701
  60    -0.00029624752769986
  61    0.00013277520780741
  62    -0.00086082388056832
  63    -0.00062315911790925
  64    -0.0049656373328273
  65    -0.00032903320401141
  66    0.0016515483365578
  67    -0.0029647438121532
  68    0.0024228538101396
  69     0.014051813550276
  70     0.039353996150443
  71    0.0035458663779978
  72    0.00076301598348896
  73    -0.00088224817776813
  74    -0.0040569395571665
  75    -0.0029799914128499
  76    -0.0076932630291071
  77    -0.00017470623752826
  78    -0.0012483167361988
  79    -0.030897843895548
  80    0.0013858231134373
  81    0.0027216650405127
  82    -0.0039267272505485
  83     0.025299677374113
  84    0.0071816290853417
  85      0.03058411629601
  86    0.0030925853221693
  87    -0.0040063835063657
  88    -0.0012694760955965
  89    -0.0032297764971485
  90    -0.0049540035364932
  91    0.00079686378400813
  92    0.0062139927892619
  93     0.031208802290382
  94    -0.0030339680833207
  95    0.0053773334002079
  96    0.0041695822624676
  97    -0.039352543233648
  98    -0.00016283156798353
  99    -0.010803577069844
 100    -0.0056425205575534
 101    -7.2791251951947e-05
 102    -0.0010261218825263
 103    0.0051792763325618
 104    -0.0036164104868914
 105    -0.011299755124847
 106    0.0065850144777053
 107    -0.0051102806537057
 108    -0.00012755471101475
 109    -0.00049147673414043
 110     0.015056098779915
 111    -0.0049333979529354
 112    0.0019194784351842
 113    0.0018691459068477
 114    -9.4665641028633e-05
 115    -0.0037578947844266
 116    -0.0016755414223591
 117    0.0031877023021506
 118    0.00052379262893621
 119    0.0014149061838528
 120    -0.0014465648625638
 121    -0.0030694561023182
 122    -0.050579730083266
 123    0.0072059342562199
 124    0.0081977671987919
 125    -0.0048382052018395
 126    -0.032643837796831
 127    -0.018634132411987
 128    -0.020058875904294
 129    0.0062478540300791
 130    -0.00091777819277792
 131    -0.00021415243415668
 132    -0.0032121556535908
 133    -0.0073592299508047
 134     0.008911481867797
 135    -0.0066451608714979
 136    -0.0027304127526891
 137    -0.0028330803083124
 138     0.005334738567158
 139    -0.0070816634743233
 140    0.0019736779748784
 141    0.0034392475623998
 142    -0.00064489002036559
 143    -0.0018189831568356
 144    0.0050840387047092
 145    0.00041711601160274
 146    0.0022101595530815
 147    -0.00077283727435772
 148    0.0048635138973329
 149    0.0012733067464864
 150    0.0027844077021533
 151     0.052745718476476
 152    -0.0071944474214644
 153    0.0072322530666175
 154    0.0057988167839072
 155     0.040270142978628
 156    -0.018666721208241
 157     0.010325159291138
 158    -0.0056738692283884
 159    -0.0023250123687653
 160    0.0017153760647313
 161    0.0045509981875635
 162    -0.0074579363383862
 163    0.00017301432771154
 164    0.00028698245968128
 165    -0.0021732410730532
 166    -1.1053663180133e-05
 167    -0.0014963413557789
 168    -0.00035512198664747
 169    -0.0076329767332833
 170    -0.044968381772145
 171    -0.0048992139031429
 172    -0.00050658351190853
 173    -0.0017073089046946
 174    -0.0048296590096984
 175    -0.0013001209830931
 176    -0.0061921265696228
 177    -0.012597484149101
 178    -0.0075787910768864
 179    -0.0023954453010914
 180    0.0022675555310121
 181    0.0019828233408561
 182    -0.0060836707166454
 183    -0.0017406963241146
 184    -0.002207044763658
 185    -0.001202655319054
 186    -0.0041132583834477
 187    -7.5253429930529e-06
 188    -3.1181251701152e-05
 189    -0.00085984244116241
 190    -2.1676884923388e-05
 191    0.00013293652179327
 192    0.00012967801065852
 193    0.00040215739897169
 194    0.0028280974045796
 195    0.0008348390611161
 196    7.317873414646e-05
 197    0.00015483188118267
 198    -0.00025272572938049
 199    -0.00017382512164242
 200    -0.00015600234989018
 201    -4.1877439887861e-05
 202    -0.00028571796172735