[Molden Format]
made by pyscf v[2.2.1]
[Atoms] (AU)
Cr   1   24    -2.49591247080304     0.00009448630623    -0.00013228082872
Cr   2   24     2.49589357354180     0.00009448630623    -0.00013228082872
O   3   8     0.00000000000000    -0.31337328323662     2.74894679888230
O   4   8     0.00000000000000     2.53746754828223    -1.10307093343112
O   5   8     0.00000000000000    -2.22388639517190    -1.64597035175741
H   6   1     0.00003779452249     0.94728191172197     4.08167614823181
H   7   1     0.00105824662976     3.05888078057222    -2.86195242113129
H   8   1    -0.00083147949481    -4.00771226771634    -1.21722928861609
N   9   7    -5.00739628487250    -2.73195816102246     1.34438895953808
H   10   1    -4.13275544537881    -4.12334460927847     2.35157518940876
H   11   1    -5.77114799537672    -3.48503291892289    -0.25713503376957
H   12   1    -6.36321808746420    -1.89940152232283     2.43247436480139
N   13   7    -5.00739628487250     2.53038107531511     1.69376152544767
N   14   7    -5.00739628487250     0.20176605831981    -3.03824497129197
H   15   1    -6.36321808746420    -1.15681474441375    -2.86125322246521
H   16   1    -5.77114799537672     1.51994451651017     3.14669635358076
N   17   7     5.00739628487250    -2.73193926376122     1.34438895953808
N   18   7     5.00737738761126     2.53039997257635     1.69376152544767
N   19   7     5.00739628487250     0.20178495558106    -3.03824497129197
H   20   1    -4.13277434264005     4.09830573812799     2.39513337657999
H   21   1    -6.36321808746420     3.05638634208779     0.42870326861883
H   22   1    -4.13275544537881     0.02520894650170    -4.74680305229498
H   23   1    -5.77116689263796     1.96527737502517    -2.88965580611742
H   24   1     4.13275544537881    -4.12332571201723     2.35157518940876
H   25   1     5.77114799537672    -3.48501402166164    -0.25715393103081
H   26   1     6.36321808746420    -1.89936372780034     2.43245546754015
H   27   1     4.13273654811756     4.09832463538923     2.39513337657999
H   28   1     5.77114799537672     1.51996341377142     3.14669635358076
H   29   1     6.36319919020295     3.05640523934904     0.42868437135758
H   30   1     4.13275544537881     0.02522784376294    -4.74680305229498
H   31   1     5.77114799537672     1.96529627228642    -2.88965580611742
H   32   1     6.36321808746420    -1.15679584715250    -2.86125322246521
[GTO]
1 0
 s    6 1.00
          51528.086349  0.0017695545768669
          7737.2103487   0.013556436258096
           1760.374847   0.067162645785071
          496.87706544    0.23295905918518
          161.46520598    0.47040576982722
          55.466352268    0.35733072606876
 s    3 1.00
          107.54732999   -0.10605255446629
          12.408671897    0.62543981484169
          5.0423628826    0.44878820793655
 s    3 1.00
          8.5461640165   -0.21819012081133
          1.3900441221    0.70422525667731
         0.56066602876    0.42488555412558
 s    1 1.00
        0.071483705972                   1
 s    1 1.00
        0.028250687604                   1
 p    5 1.00
          640.48536096  0.0093555063746755
          150.69711194   0.068993338492216
          47.503755296     0.2634118959318
          16.934120165    0.51034501651775
           6.240968059    0.33195512953954
 p    3 1.00
          3.0885463206    0.32917682676976
          1.1791047769    0.55491385190365
         0.43369774432    0.23818412855984
 p    1 1.00
              0.120675                   1
 d    4 1.00
          27.559479426   0.036950140313562
          7.4687020327    0.18821519783039
          2.4345903574    0.44641244239929
         0.78244754808     0.5681617303244
 d    1 1.00
         0.21995774311                   1
 f    1 1.00
                 1.147                   1

2 0
 s    6 1.00
          51528.086349  0.0017695545768669
          7737.2103487   0.013556436258096
           1760.374847   0.067162645785071
          496.87706544    0.23295905918518
          161.46520598    0.47040576982722
          55.466352268    0.35733072606876
 s    3 1.00
          107.54732999   -0.10605255446629
          12.408671897    0.62543981484169
          5.0423628826    0.44878820793655
 s    3 1.00
          8.5461640165   -0.21819012081133
          1.3900441221    0.70422525667731
         0.56066602876    0.42488555412558
 s    1 1.00
        0.071483705972                   1
 s    1 1.00
        0.028250687604                   1
 p    5 1.00
          640.48536096  0.0093555063746755
          150.69711194   0.068993338492216
          47.503755296     0.2634118959318
          16.934120165    0.51034501651775
           6.240968059    0.33195512953954
 p    3 1.00
          3.0885463206    0.32917682676976
          1.1791047769    0.55491385190365
         0.43369774432    0.23818412855984
 p    1 1.00
              0.120675                   1
 d    4 1.00
          27.559479426   0.036950140313562
          7.4687020327    0.18821519783039
          2.4345903574    0.44641244239929
         0.78244754808     0.5681617303244
 d    1 1.00
         0.21995774311                   1
 f    1 1.00
                 1.147                   1

3 0
 s    5 1.00
          2266.1767785  -0.0053893503921743
          340.87010191   -0.04023472138896
          77.363135167   -0.18008184205526
           21.47964494   -0.46828857657651
          6.6589433124   -0.44692617160187
 s    1 1.00
         0.80975975668                   1
 s    1 1.00
         0.25530772234                   1
 p    3 1.00
          17.721504317   0.062630248763161
           3.863550544    0.33331138482352
          1.0480920883    0.74148638308122
 p    1 1.00
         0.27641544411                   1
 d    1 1.00
                   1.2                   1

4 0
 s    5 1.00
          2266.1767785  -0.0053893503921743
          340.87010191   -0.04023472138896
          77.363135167   -0.18008184205526
           21.47964494   -0.46828857657651
          6.6589433124   -0.44692617160187
 s    1 1.00
         0.80975975668                   1
 s    1 1.00
         0.25530772234                   1
 p    3 1.00
          17.721504317   0.062630248763161
           3.863550544    0.33331138482352
          1.0480920883    0.74148638308122
 p    1 1.00
         0.27641544411                   1
 d    1 1.00
                   1.2                   1

5 0
 s    5 1.00
          2266.1767785  -0.0053893503921743
          340.87010191   -0.04023472138896
          77.363135167   -0.18008184205526
           21.47964494   -0.46828857657651
          6.6589433124   -0.44692617160187
 s    1 1.00
         0.80975975668                   1
 s    1 1.00
         0.25530772234                   1
 p    3 1.00
          17.721504317   0.062630248763161
           3.863550544    0.33331138482352
          1.0480920883    0.74148638308122
 p    1 1.00
         0.27641544411                   1
 d    1 1.00
                   1.2                   1

6 0
 s    3 1.00
             13.010701   0.033485484812989
             1.9622572    0.23472187088125
            0.44453796    0.81377028525955
 s    1 1.00
            0.12194962                   1
 p    1 1.00
                   0.8                   1

7 0
 s    3 1.00
             13.010701   0.033485484812989
             1.9622572    0.23472187088125
            0.44453796    0.81377028525955
 s    1 1.00
            0.12194962                   1
 p    1 1.00
                   0.8                   1

8 0
 s    3 1.00
             13.010701   0.033485484812989
             1.9622572    0.23472187088125
            0.44453796    0.81377028525955
 s    1 1.00
            0.12194962                   1
 p    1 1.00
                   0.8                   1

9 0
 s    5 1.00
          1712.8415853  -0.0054477995804909
          257.64812677  -0.040627174632423
          58.458245853   -0.18111962250584
          16.198367905   -0.46843975563173
          5.0052600809   -0.44616846289231
 s    1 1.00
         0.58731856571                   1
 s    1 1.00
         0.18764592253                   1
 p    3 1.00
          13.571470233  -0.058848116969522
          2.9257372874   -0.32024624762471
         0.79927750754   -0.75328226520436
 p    1 1.00
         0.21954348034                   1
 d    1 1.00
                     1                   1

10 0
 s    3 1.00
             13.010701   0.033485484812989
             1.9622572    0.23472187088125
            0.44453796    0.81377028525955
 s    1 1.00
            0.12194962                   1
 p    1 1.00
                   0.8                   1

11 0
 s    3 1.00
             13.010701   0.033485484812989
             1.9622572    0.23472187088125
            0.44453796    0.81377028525955
 s    1 1.00
            0.12194962                   1
 p    1 1.00
                   0.8                   1

12 0
 s    3 1.00
             13.010701   0.033485484812989
             1.9622572    0.23472187088125
            0.44453796    0.81377028525955
 s    1 1.00
            0.12194962                   1
 p    1 1.00
                   0.8                   1

13 0
 s    5 1.00
          1712.8415853  -0.0054477995804909
          257.64812677  -0.040627174632423
          58.458245853   -0.18111962250584
          16.198367905   -0.46843975563173
          5.0052600809   -0.44616846289231
 s    1 1.00
         0.58731856571                   1
 s    1 1.00
         0.18764592253                   1
 p    3 1.00
          13.571470233  -0.058848116969522
          2.9257372874   -0.32024624762471
         0.79927750754   -0.75328226520436
 p    1 1.00
         0.21954348034                   1
 d    1 1.00
                     1                   1

14 0
 s    5 1.00
          1712.8415853  -0.0054477995804909
          257.64812677  -0.040627174632423
          58.458245853   -0.18111962250584
          16.198367905   -0.46843975563173
          5.0052600809   -0.44616846289231
 s    1 1.00
         0.58731856571                   1
 s    1 1.00
         0.18764592253                   1
 p    3 1.00
          13.571470233  -0.058848116969522
          2.9257372874   -0.32024624762471
         0.79927750754   -0.75328226520436
 p    1 1.00
         0.21954348034                   1
 d    1 1.00
                     1                   1

15 0
 s    3 1.00
             13.010701   0.033485484812989
             1.9622572    0.23472187088125
            0.44453796    0.81377028525955
 s    1 1.00
            0.12194962                   1
 p    1 1.00
                   0.8                   1

16 0
 s    3 1.00
             13.010701   0.033485484812989
             1.9622572    0.23472187088125
            0.44453796    0.81377028525955
 s    1 1.00
            0.12194962                   1
 p    1 1.00
                   0.8                   1

17 0
 s    5 1.00
          1712.8415853  -0.0054477995804909
          257.64812677  -0.040627174632423
          58.458245853   -0.18111962250584
          16.198367905   -0.46843975563173
          5.0052600809   -0.44616846289231
 s    1 1.00
         0.58731856571                   1
 s    1 1.00
         0.18764592253                   1
 p    3 1.00
          13.571470233  -0.058848116969522
          2.9257372874   -0.32024624762471
         0.79927750754   -0.75328226520436
 p    1 1.00
         0.21954348034                   1
 d    1 1.00
                     1                   1

18 0
 s    5 1.00
          1712.8415853  -0.0054477995804909
          257.64812677  -0.040627174632423
          58.458245853   -0.18111962250584
          16.198367905   -0.46843975563173
          5.0052600809   -0.44616846289231
 s    1 1.00
         0.58731856571                   1
 s    1 1.00
         0.18764592253                   1
 p    3 1.00
          13.571470233  -0.058848116969522
          2.9257372874   -0.32024624762471
         0.79927750754   -0.75328226520436
 p    1 1.00
         0.21954348034                   1
 d    1 1.00
                     1                   1

19 0
 s    5 1.00
          1712.8415853  -0.0054477995804909
          257.64812677  -0.040627174632423
          58.458245853   -0.18111962250584
          16.198367905   -0.46843975563173
          5.0052600809   -0.44616846289231
 s    1 1.00
         0.58731856571                   1
 s    1 1.00
         0.18764592253                   1
 p    3 1.00
          13.571470233  -0.058848116969522
          2.9257372874   -0.32024624762471
         0.79927750754   -0.75328226520436
 p    1 1.00
         0.21954348034                   1
 d    1 1.00
                     1                   1

20 0
 s    3 1.00
             13.010701   0.033485484812989
             1.9622572    0.23472187088125
            0.44453796    0.81377028525955
 s    1 1.00
            0.12194962                   1
 p    1 1.00
                   0.8                   1

21 0
 s    3 1.00
             13.010701   0.033485484812989
             1.9622572    0.23472187088125
            0.44453796    0.81377028525955
 s    1 1.00
            0.12194962                   1
 p    1 1.00
                   0.8                   1

22 0
 s    3 1.00
             13.010701   0.033485484812989
             1.9622572    0.23472187088125
            0.44453796    0.81377028525955
 s    1 1.00
            0.12194962                   1
 p    1 1.00
                   0.8                   1

23 0
 s    3 1.00
             13.010701   0.033485484812989
             1.9622572    0.23472187088125
            0.44453796    0.81377028525955
 s    1 1.00
            0.12194962                   1
 p    1 1.00
                   0.8                   1

24 0
 s    3 1.00
             13.010701   0.033485484812989
             1.9622572    0.23472187088125
            0.44453796    0.81377028525955
 s    1 1.00
            0.12194962                   1
 p    1 1.00
                   0.8                   1

25 0
 s    3 1.00
             13.010701   0.033485484812989
             1.9622572    0.23472187088125
            0.44453796    0.81377028525955
 s    1 1.00
            0.12194962                   1
 p    1 1.00
                   0.8                   1

26 0
 s    3 1.00
             13.010701   0.033485484812989
             1.9622572    0.23472187088125
            0.44453796    0.81377028525955
 s    1 1.00
            0.12194962                   1
 p    1 1.00
                   0.8                   1

27 0
 s    3 1.00
             13.010701   0.033485484812989
             1.9622572    0.23472187088125
            0.44453796    0.81377028525955
 s    1 1.00
            0.12194962                   1
 p    1 1.00
                   0.8                   1

28 0
 s    3 1.00
             13.010701   0.033485484812989
             1.9622572    0.23472187088125
            0.44453796    0.81377028525955
 s    1 1.00
            0.12194962                   1
 p    1 1.00
                   0.8                   1

29 0
 s    3 1.00
             13.010701   0.033485484812989
             1.9622572    0.23472187088125
            0.44453796    0.81377028525955
 s    1 1.00
            0.12194962                   1
 p    1 1.00
                   0.8                   1

30 0
 s    3 1.00
             13.010701   0.033485484812989
             1.9622572    0.23472187088125
            0.44453796    0.81377028525955
 s    1 1.00
            0.12194962                   1
 p    1 1.00
                   0.8                   1

31 0
 s    3 1.00
             13.010701   0.033485484812989
             1.9622572    0.23472187088125
            0.44453796    0.81377028525955
 s    1 1.00
            0.12194962                   1
 p    1 1.00
                   0.8                   1

32 0
 s    3 1.00
             13.010701   0.033485484812989
             1.9622572    0.23472187088125
            0.44453796    0.81377028525955
 s    1 1.00
            0.12194962                   1
 p    1 1.00
                   0.8                   1

[5d]
[7f]
[9g]

[MO]
 Sym= A
 Ene=               0
 Spin= Alpha
 Occup=    1.00000
   1    -0.0012892006937887
   2    0.0019664098220757
   3    -0.015194536865752
   4      0.23461159375162
   5    -0.0095572733394057
   6    0.0025712287702732
   7    3.8261240794033e-07
   8    2.519697528621e-07
   9    -0.0052526006118148
  10    -1.6356035274847e-06
  11    -1.1001768596195e-06
  12       0.1270712337292
  13    5.8565122810354e-06
  14    1.0844492576507e-05
  15     0.001436653981558
  16    -5.736416416113e-08
  17    5.5689251417807e-07
  18    -0.0024894540957336
  19    3.0413752207112e-07
  20    -0.022857419575314
  21    -5.0626228178179e-07
  22    -4.4157485164372e-06
  23     0.039600386409146
  24    -5.1095371499051e-06
  25    -0.0013657877166064
  26    -0.0040685743106123
  27    0.00040141258010339
  28    -0.0010580017774001
  29    -6.8578278573092e-07
  30     0.005253995129205
  31    0.00010309295028892
  32     0.049667418905993
  33     -0.23469914780541
  34       1.2510094132685
  35      -0.9196345119941
  36    -0.021388583783392
  37    -0.0010802920513129
  38    1.4555721436028e-08
  39    -2.6605830612734e-07
  40    0.0030694221469662
  41    -5.1823471247961e-08
  42    9.4405973780373e-07
  43    0.0093204598247031
  44    -1.4148796282124e-06
  45    -1.71146973435e-05
  46    -0.0039992384705381
  47    -1.2779212384223e-07
  48    -1.5837912250365e-06
  49    0.0069298768521178
  50    -3.0062984431139e-07
  51     0.040679787146336
  52    4.9359542377289e-07
  53    4.849543372827e-06
  54    -0.070468766155119
  55    1.0162631015914e-06
  56    0.00060304736127398
  57    -0.0020417101298759
  58    0.0010515002648774
  59    0.00046679402737902
  60    3.0210387599401e-07
  61    0.0026360020980427
  62    0.00027109333087328
  63    -0.005139388397618
  64    -0.035631533980979
  65      0.10210046747538
  66    0.0081187140476579
  67    0.00068570940652948
  68    0.0059574490844119
  69      0.04486914451423
  70    -0.010112601187452
  71    -0.013413871916579
  72    0.0028734842467874
  73    -0.0071569348016499
  74    0.00034418136648176
  75    0.0020131983325246
  76    -0.00059654880800889
  77    -0.0051385760752204
  78    -0.035620609781486
  79      0.10205181803253
  80    0.0081255519127354
  81    0.0048114289920711
  82    -0.0035773020581112
  83     0.044831962532165
  84    -0.0065400637672958
  85     0.015518099419072
  86    -0.0014153134275498
  87    0.0040999596488119
  88    -0.0031974560048903
  89    -0.00045857830747564
  90    -0.005895066799377
  91    -0.0051384834986586
  92    -0.035627668505033
  93      0.10208391591659
  94    0.0081226772829732
  95    -0.0055036638291923
  96    -0.0023774538103246
  97     0.044845712580846
  98     0.016676382528415
  99    -0.0020906298370399
 100     -0.00192583273848
 101    0.0030555508263786
 102    0.0028547507936497
 103    -0.00075194160511093
 104    0.0064979097476713
 105    -0.0085315979428694
 106     0.062371845101184
 107     0.010308837715167
 108    0.0031866061647069
 109    -0.005259103634656
 110    -0.0084780872053421
 111     0.062411218756647
 112     0.010332682257323
 113    -0.006169686999218
 114    -0.0001129137377294
 115    -0.0085123898038011
 116     0.062389121175194
 117     0.010325035184535
 118    0.0029749682111455
 119     0.005395024180302
 120    0.00046626990944923
 121    0.0059749915657483
 122    -0.0087651724305852
 123    -0.0014731665059418
 124    -0.00072442974425386
 125    0.00069857142784728
 126    -0.010575408877836
 127    -0.003376002121988
 128    0.0035302916885987
 129    0.00012765111044622
 130    -0.00017982429445811
 131    0.00070907654207423
 132    0.00077730356816448
 133    -0.0004294570415222
 134    0.0026881480481091
 135    -0.008632186581411
 136    -0.00045038873763362
 137    -0.00055713609043313
 138    -0.00021026880501192
 139    0.0035837541418746
 140    -0.013091831895229
 141    0.00035599799733587
 142    0.00017490215021381
 143    -0.00065502496172444
 144    -0.0014998814624027
 145    -0.0004992211694618
 146    0.00046392136385449
 147    0.0017802887253867
 148    -7.8388021996083e-05
 149    0.00046652863937569
 150    0.0059755354808755
 151    -0.0087756984170092
 152    -0.0014730233475287
 153    0.00096821580264422
 154    0.00027921294283613
 155    -0.010570974075836
 156    0.0047421689832053
 157    0.0011610092902852
 158    1.1460111658832e-05
 159    0.00046103518728019
 160    -0.00078751295168641
 161    0.00071001384973053
 162    5.9403209985485e-05
 163    0.00046542415755476
 164    0.0059707717025799
 165    -0.0087659687190907
 166    -0.0014694563292269
 167    -0.00024288251234084
 168    -0.00097353832961047
 169     -0.01056885614516
 170    -0.0013716726672634
 171    -0.0046878562077999
 172    -0.0010530477619856
 173    -0.00028266961118374
 174    7.7356570195318e-05
 175    9.5576495996843e-05
 176    0.00037013183498466
 177    -0.0014980350414313
 178    -0.00050100878007002
 179    0.00046341323899829
 180    -0.00082125012020327
 181    0.0015808336288552
 182    0.0035831188501076
 183    -0.013095768455164
 184    0.00035427387399254
 185    -0.00065484107652396
 186    0.00017602287094956
 187    -0.001108649929033
 188    -0.031143021693472
 189       0.1454891725504
 190    -0.0008069686999949
 191    -0.0023418305664432
 192    0.0017911389628429
 193    -0.047998460631946
 194     0.060638449869422
 195    -0.019352223091051
 196    -0.0039904232826766
 197    0.0035525407107166
 198    -0.0066748144604877
 199    -0.0042965872888443
 200    -0.0067546068374105
 201    -0.0011088624988285
 202    -0.031144920220413
 203      0.14548779462427
 204    -0.00080793559872698
 205    0.0027215579985035
 206     0.001132157774631
 207    -0.047996737610416
 208    -0.047090158487415
 209    -0.042834071303775
 210    -0.0017159442749563
 211    0.0040737615972657
 212    0.0081896445412966
 213    -0.0029841513543218
 214     0.006454215340231
 215    -0.0011081314789742
 216    -0.031137068969244
 217      0.14548749236266
 218    -0.00080263143152352
 219    -0.00038117812048173
 220    -0.0029274694494799
 221    -0.047976206993804
 222    -0.013564388539646
 223     0.062180988598125
 224     0.008295524970565
 225    -0.0076264852755141
 226    -0.0015158739182055
 227    0.0027967422344428
 228    0.00029925245626951
 229    0.0026837506170332
 230    -0.0086063378094392
 231    -0.00044900855334209
 232    9.2569823926692e-05
 233    0.00058681967447038
 234    -0.0014957986671734
 235    -0.00050388885092541
 236    0.0004639377142737
 237    -0.00095901891771794
 238    -0.0015017760915752
 239    0.0026854837574828
 240    -0.0086220696392488
 241    -0.00045034508719008
 242    0.00046169209606961
 243    -0.00037651532084328
 244    0.0035838974726653
 245    -0.013086574044603
 246    0.00035539725064414
 247    0.00047923430642615
 248    0.00047864712848536
 249    -0.011419482727521
 250     0.061870817213554
 251    -0.0047353426969496
 252    0.0050288594485454
 253    -0.0022090022921161
 254    -0.0017061185283234
 255     0.046533139481493
 256    -0.0066433246629961
 257    0.0046878455730679
 258    -0.00084732100048209
 259    -0.0046615818682197
 260     0.018907163132429
 261    -0.0017926162739582
 262     0.000962198661199
 263    -0.0028363045426772
 264    -0.011420943017261
 265     0.061896033252151
 266    -0.0047356570742594
 267    -0.0044307101698602
 268    -0.0032523681863012
 269    -0.0017072694895762
 270     0.046514000390284
 271    -0.0066408077656729
 272    -0.0030778407944494
 273    -0.0036343408260486
 274    -0.0046590566963061
 275     0.018910939655513
 276     -0.00179389211456
 277    -0.0029380099421223
 278    0.00058423995944449
 279    -0.011417330033598
 280     0.061879119846936
 281    -0.0047387001345983
 282    -0.00060136597917666
 283    0.0054626268381734
 284    -0.0016995714029124
 285     0.046515666972648
 286    -0.0066454529252445
 287    -0.0016083109314556
 288    0.0044854998199486
 289    -0.0046678633796846
 290     0.018904001180347
 291    -0.0017935049858141
 292    0.0019739165514574
 293    0.0022539052571346
 Sym= A
 Ene=               1
 Spin= Alpha
 Occup=    1.00000
   1    0.00090489645380023
   2    -0.0012710584890897
   3     0.010378199410449
   4      -0.1774001355462
   5    -0.00046342509753489
   6    -0.0030967963432286
   7    1.0435624537283e-07
   8    -1.6871826904304e-07
   9     0.007332610443517
  10    -3.2900223611218e-07
  11    6.6429106628744e-07
  12     -0.17315487042069
  13    5.6438325722263e-06
  14    -2.7695491235079e-06
  15    -0.0032439552579542
  16    -3.257000610181e-07
  17    -6.9575320113033e-07
  18    0.0056190857406886
  19    -3.7710132783592e-07
  20     0.041879790064474
  21    2.1450709931742e-06
  22    5.6677564323986e-06
  23    -0.072542972479482
  24    2.6962468561471e-06
  25    0.0020190708471473
  26    0.0050644577628637
  27    -0.00077143566951907
  28    0.0015638719090581
  29    6.2201547382551e-07
  30    -0.0065392545870475
  31    -0.0001988997766159
  32    0.00011105552812787
  33    -3.5002846764716e-06
  34    -3.2207499717285e-05
  35     0.024588092937338
  36    -0.013749063548375
  37     -0.20924981090589
  38    1.3125269248943e-08
  39    -4.5757499161656e-07
  40       1.1449825136284
  41    2.5434844586694e-08
  42    1.6823395645409e-06
  43     -0.54250028857654
  44    -2.5968631952355e-06
  45    1.2529521851274e-06
  46    -0.001003893920197
  47    1.0799961589793e-06
  48    9.9200019424368e-08
  49    0.0017381778245672
  50    1.5386263481586e-07
  51    -0.016002247948547
  52    -8.2952589525972e-06
  53    2.4789936041818e-08
  54     0.027719633309208
  55    3.6404301288853e-07
  56    0.0022515720262407
  57    0.0019958843009102
  58    -0.00049773809414164
  59    0.0017443437656611
  60    -6.7798705685971e-07
  61    -0.0025774077887612
  62    -0.00012831968218723
  63    0.0023816986704612
  64    0.0021928921754159
  65    -0.026684006296784
  66    -0.017747493157857
  67     0.001727121568457
  68    -0.0044376842269086
  69     0.017831563776602
  70    0.0040231278437873
  71    0.0024970272960809
  72    -0.0023900368031959
  73    0.0017188106486761
  74    0.00072894116242474
  75    0.0027669868645146
  76    0.0021146841556916
  77    0.0023809612099053
  78    0.0021838821274862
  79    -0.026642905505443
  80    -0.017749426499651
  81    -0.0047066627390981
  82    0.00072178153911378
  83     0.017853590597311
  84    0.00014000433369766
  85    -0.0047605596762501
  86    -0.00094309281051709
  87    -0.0026938425701814
  88    0.00023125442466375
  89    0.0035984928900028
  90    0.0004246661765724
  91    0.0023798322307477
  92    0.0021847104746285
  93    -0.026665017558258
  94     -0.01774812528744
  95    0.0029824099309152
  96    0.0037150929753069
  97     0.017849251641849
  98    -0.0041725208505109
  99    0.0022505171565705
 100    -0.0020418418776346
 101    0.00097888555929696
 102    -0.00096377750821916
 103    0.0029632687737159
 104    -0.002544573806696
 105    -0.0073686220419544
 106    0.0027123171290885
 107    -0.012149463219461
 108    -0.00079719018944711
 109    0.0032691528221297
 110    -0.0074117845983337
 111    0.0026986656391825
 112    -0.012158958515405
 113    0.0032500595055649
 114    -0.00096502985441328
 115    -0.0073661129494631
 116     0.002692795367371
 117    -0.012164261564767
 118    -0.0024426156752638
 119    -0.0023317600273658
 120    -0.00076497702246809
 121    -0.003830459743841
 122    -0.0088138056820261
 123     0.003380921836575
 124    0.0016266810524389
 125    -0.00056067110480882
 126     0.004197701238086
 127    0.00067947410451427
 128    -2.38758692309e-05
 129    0.0001719919135143
 130    0.00010447513208816
 131    -0.00048932809351246
 132    -0.00089553218407205
 133    -0.00029627787795594
 134    -0.002611285055688
 135     0.013560651307985
 136    0.0010433438559662
 137    0.0008553356874848
 138    -0.00019286455760632
 139    -0.00079215011870466
 140    0.0061837165525752
 141    -0.0012419433131149
 142    -0.0011900897645211
 143    0.00094642908733368
 144     0.001092563612308
 145    0.0015289506499888
 146    -0.0010600406583576
 147    -0.0018782148796332
 148    0.00011858561316946
 149    -0.00076546641850839
 150    -0.0038308975183174
 151    -0.0088180560942488
 152    0.0033824304367993
 153    -0.001300286193066
 154    -0.0011294295179875
 155    0.0041920374114145
 156    -0.0003612266214802
 157    -0.00057337117705067
 158    0.00019329688867657
 159    0.00020468155649754
 160    0.00050336688150083
 161    -0.00088377302742331
 162    0.00023853134674459
 163    -0.00076421808280486
 164    -0.0038276389646844
 165    -0.0088188434756381
 166    0.0033781655128332
 167    -0.00032740414836797
 168    0.0016857979019286
 169    0.0041954741276248
 170    -0.00031650464876344
 171    0.00060209116732909
 172    0.00092752392096192
 173    -0.00030853245475422
 174    -1.3851833008645e-05
 175    -0.00045960232976466
 176    5.7924887832354e-05
 177    0.0010925970653903
 178    0.0015277686399963
 179    -0.0010596870519161
 180    0.0008361404407006
 181    -0.0016858048479602
 182    -0.00079217748099099
 183     0.006180736912756
 184    -0.0012416665790495
 185    0.0014143808147702
 186    0.00055783981095101
 187    0.00068494118113491
 188    -0.0035491111249516
 189     0.097008163257194
 190    0.0096937304709176
 191    -0.0055200898221313
 192     0.002461529042854
 193     0.019546362641603
 194     0.046998770749536
 195    -0.013064049142393
 196    -0.0019880639263616
 197    0.0023620495563605
 198     -0.00322467701475
 199    -0.0034229831042522
 200    -0.002843832992576
 201    0.00068487671455324
 202    -0.003549717536857
 203     0.097012993258519
 204    0.0096939732874906