[Molden Format]
made by pyscf v[2.2.1]
[Atoms] (AU)
Cr   1   24    -2.49591247080304     0.00009448630623    -0.00013228082872
Cr   2   24     2.49589357354180     0.00009448630623    -0.00013228082872
O   3   8     0.00000000000000    -0.31337328323662     2.74894679888230
O   4   8     0.00000000000000     2.53746754828223    -1.10307093343112
O   5   8     0.00000000000000    -2.22388639517190    -1.64597035175741
H   6   1     0.00003779452249     0.94728191172197     4.08167614823181
H   7   1     0.00105824662976     3.05888078057222    -2.86195242113129
H   8   1    -0.00083147949481    -4.00771226771634    -1.21722928861609
N   9   7    -5.00739628487250    -2.73195816102246     1.34438895953808
H   10   1    -4.13275544537881    -4.12334460927847     2.35157518940876
H   11   1    -5.77114799537672    -3.48503291892289    -0.25713503376957
H   12   1    -6.36321808746420    -1.89940152232283     2.43247436480139
N   13   7    -5.00739628487250     2.53038107531511     1.69376152544767
N   14   7    -5.00739628487250     0.20176605831981    -3.03824497129197
H   15   1    -6.36321808746420    -1.15681474441375    -2.86125322246521
H   16   1    -5.77114799537672     1.51994451651017     3.14669635358076
N   17   7     5.00739628487250    -2.73193926376122     1.34438895953808
N   18   7     5.00737738761126     2.53039997257635     1.69376152544767
N   19   7     5.00739628487250     0.20178495558106    -3.03824497129197
H   20   1    -4.13277434264005     4.09830573812799     2.39513337657999
H   21   1    -6.36321808746420     3.05638634208779     0.42870326861883
H   22   1    -4.13275544537881     0.02520894650170    -4.74680305229498
H   23   1    -5.77116689263796     1.96527737502517    -2.88965580611742
H   24   1     4.13275544537881    -4.12332571201723     2.35157518940876
H   25   1     5.77114799537672    -3.48501402166164    -0.25715393103081
H   26   1     6.36321808746420    -1.89936372780034     2.43245546754015
H   27   1     4.13273654811756     4.09832463538923     2.39513337657999
H   28   1     5.77114799537672     1.51996341377142     3.14669635358076
H   29   1     6.36319919020295     3.05640523934904     0.42868437135758
H   30   1     4.13275544537881     0.02522784376294    -4.74680305229498
H   31   1     5.77114799537672     1.96529627228642    -2.88965580611742
H   32   1     6.36321808746420    -1.15679584715250    -2.86125322246521
[GTO]
1 0
 s    6 1.00
              51789.81  0.0017761819555629
              7776.849   0.013604759659632
              1771.385    0.06706924832204
              499.1588    0.23231039418799
              159.7982    0.48024098798518
              54.47021    0.34876529127448
 s    6 1.00
              1064.328  0.0023996690266464
              253.2138   0.031948860354767
              81.60924    0.12508680138899
              30.48193  -0.032218660357763
              12.29439   -0.61722840685383
              5.037722   -0.45259360502569
 s    6 1.00
              41.56291  -0.003454215977732
              13.67627   0.072184279534656
               5.84439    0.25448199835945
              2.471609   -0.29345339810822
              1.028308   -0.73854549523889
               0.40725   -0.19471569874474
 s    3 1.00
              1.571464     0.0589222145985
               0.60558    0.29760562424265
              0.098561    -1.1475064790543
 s    1 1.00
              0.036459                   1
 p    6 1.00
              1064.328  0.0039869969688977
              253.2138   0.031046619757807
              81.60924    0.13505179894647
              30.48193    0.34488649730956
              12.29439    0.46285709638928
              5.037722    0.21104259835367
 p    6 1.00
              41.56291  -0.0067224970170094
              13.67627   -0.02806471007101
               5.84439    0.05820028014726
              2.471609    0.39169880099109
              1.028308    0.50478230127721
               0.40725    0.17902900045298
 p    3 1.00
              1.571464   -0.19301000799964
               0.60558   0.096056203981218
              0.098561    0.98176094069081
 p    1 1.00
              0.036459                   1
 d    3 1.00
               18.4193   0.086508163346808
              4.812661    0.38266991480465
              1.446447    0.70937722744422
 d    1 1.00
              0.400413                   1
 f    1 1.00
                   0.8                   1

2 0
 s    6 1.00
              51789.81  0.0017761819555629
              7776.849   0.013604759659632
              1771.385    0.06706924832204
              499.1588    0.23231039418799
              159.7982    0.48024098798518
              54.47021    0.34876529127448
 s    6 1.00
              1064.328  0.0023996690266464
              253.2138   0.031948860354767
              81.60924    0.12508680138899
              30.48193  -0.032218660357763
              12.29439   -0.61722840685383
              5.037722   -0.45259360502569
 s    6 1.00
              41.56291  -0.003454215977732
              13.67627   0.072184279534656
               5.84439    0.25448199835945
              2.471609   -0.29345339810822
              1.028308   -0.73854549523889
               0.40725   -0.19471569874474
 s    3 1.00
              1.571464     0.0589222145985
               0.60558    0.29760562424265
              0.098561    -1.1475064790543
 s    1 1.00
              0.036459                   1
 p    6 1.00
              1064.328  0.0039869969688977
              253.2138   0.031046619757807
              81.60924    0.13505179894647
              30.48193    0.34488649730956
              12.29439    0.46285709638928
              5.037722    0.21104259835367
 p    6 1.00
              41.56291  -0.0067224970170094
              13.67627   -0.02806471007101
               5.84439    0.05820028014726
              2.471609    0.39169880099109
              1.028308    0.50478230127721
               0.40725    0.17902900045298
 p    3 1.00
              1.571464   -0.19301000799964
               0.60558   0.096056203981218
              0.098561    0.98176094069081
 p    1 1.00
              0.036459                   1
 d    3 1.00
               18.4193   0.086508163346808
              4.812661    0.38266991480465
              1.446447    0.70937722744422
 d    1 1.00
              0.400413                   1
 f    1 1.00
                   0.8                   1

3 0
 s    6 1.00
             5484.6717   0.001831099805527
             825.23495   0.013950098518422
             188.04696    0.06844509273075
               52.9645    0.23271427528445
              16.89757    0.47019295006289
             5.7996353    0.35852086192309
 s    3 1.00
             15.539616   -0.11077750382508
             3.5999336   -0.14802630511126
             1.0137618     1.1307670390447
 s    1 1.00
             0.2700058                   1
 p    3 1.00
             15.539616   0.070874299543311
             3.5999336    0.33975279781076
             1.0137618    0.72715859531445
 p    1 1.00
             0.2700058                   1
 d    1 1.00
                   0.8                   1

4 0
 s    6 1.00
             5484.6717   0.001831099805527
             825.23495   0.013950098518422
             188.04696    0.06844509273075
               52.9645    0.23271427528445
              16.89757    0.47019295006289
             5.7996353    0.35852086192309
 s    3 1.00
             15.539616   -0.11077750382508
             3.5999336   -0.14802630511126
             1.0137618     1.1307670390447
 s    1 1.00
             0.2700058                   1
 p    3 1.00
             15.539616   0.070874299543311
             3.5999336    0.33975279781076
             1.0137618    0.72715859531445
 p    1 1.00
             0.2700058                   1
 d    1 1.00
                   0.8                   1

5 0
 s    6 1.00
             5484.6717   0.001831099805527
             825.23495   0.013950098518422
             188.04696    0.06844509273075
               52.9645    0.23271427528445
              16.89757    0.47019295006289
             5.7996353    0.35852086192309
 s    3 1.00
             15.539616   -0.11077750382508
             3.5999336   -0.14802630511126
             1.0137618     1.1307670390447
 s    1 1.00
             0.2700058                   1
 p    3 1.00
             15.539616   0.070874299543311
             3.5999336    0.33975279781076
             1.0137618    0.72715859531445
 p    1 1.00
             0.2700058                   1
 d    1 1.00
                   0.8                   1

6 0
 s    3 1.00
             18.731137    0.03349459952309
             2.8253937    0.23472694665786
             0.6401217    0.81375731841339
 s    1 1.00
             0.1612778                   1

7 0
 s    3 1.00
             18.731137    0.03349459952309
             2.8253937    0.23472694665786
             0.6401217    0.81375731841339
 s    1 1.00
             0.1612778                   1

8 0
 s    3 1.00
             18.731137    0.03349459952309
             2.8253937    0.23472694665786
             0.6401217    0.81375731841339
 s    1 1.00
             0.1612778                   1

9 0
 s    6 1.00
              4173.511  0.0018347994430301
              627.4579   0.013994995751693
              142.9021   0.068586979179805
              40.23433    0.23224092950117
              12.82021    0.46906985760962
              4.390437    0.36045489058067
 s    3 1.00
             11.626358   -0.11496102288211
               2.71628   -0.16911803366165
              0.772218     1.1458522280731
 s    1 1.00
             0.2120313                   1
 p    3 1.00
             11.626358   0.067580023248036
               2.71628    0.32390711142648
              0.772218    0.74089525487354
 p    1 1.00
             0.2120313                   1
 d    1 1.00
                   0.8                   1

10 0
 s    3 1.00
             18.731137    0.03349459952309
             2.8253937    0.23472694665786
             0.6401217    0.81375731841339
 s    1 1.00
             0.1612778                   1

11 0
 s    3 1.00
             18.731137    0.03349459952309
             2.8253937    0.23472694665786
             0.6401217    0.81375731841339
 s    1 1.00
             0.1612778                   1

12 0
 s    3 1.00
             18.731137    0.03349459952309
             2.8253937    0.23472694665786
             0.6401217    0.81375731841339
 s    1 1.00
             0.1612778                   1

13 0
 s    6 1.00
              4173.511  0.0018347994430301
              627.4579   0.013994995751693
              142.9021   0.068586979179805
              40.23433    0.23224092950117
              12.82021    0.46906985760962
              4.390437    0.36045489058067
 s    3 1.00
             11.626358   -0.11496102288211
               2.71628   -0.16911803366165
              0.772218     1.1458522280731
 s    1 1.00
             0.2120313                   1
 p    3 1.00
             11.626358   0.067580023248036
               2.71628    0.32390711142648
              0.772218    0.74089525487354
 p    1 1.00
             0.2120313                   1
 d    1 1.00
                   0.8                   1

14 0
 s    6 1.00
              4173.511  0.0018347994430301
              627.4579   0.013994995751693
              142.9021   0.068586979179805
              40.23433    0.23224092950117
              12.82021    0.46906985760962
              4.390437    0.36045489058067
 s    3 1.00
             11.626358   -0.11496102288211
               2.71628   -0.16911803366165
              0.772218     1.1458522280731
 s    1 1.00
             0.2120313                   1
 p    3 1.00
             11.626358   0.067580023248036
               2.71628    0.32390711142648
              0.772218    0.74089525487354
 p    1 1.00
             0.2120313                   1
 d    1 1.00
                   0.8                   1

15 0
 s    3 1.00
             18.731137    0.03349459952309
             2.8253937    0.23472694665786
             0.6401217    0.81375731841339
 s    1 1.00
             0.1612778                   1

16 0
 s    3 1.00
             18.731137    0.03349459952309
             2.8253937    0.23472694665786
             0.6401217    0.81375731841339
 s    1 1.00
             0.1612778                   1

17 0
 s    6 1.00
              4173.511  0.0018347994430301
              627.4579   0.013994995751693
              142.9021   0.068586979179805
              40.23433    0.23224092950117
              12.82021    0.46906985760962
              4.390437    0.36045489058067
 s    3 1.00
             11.626358   -0.11496102288211
               2.71628   -0.16911803366165
              0.772218     1.1458522280731
 s    1 1.00
             0.2120313                   1
 p    3 1.00
             11.626358   0.067580023248036
               2.71628    0.32390711142648
              0.772218    0.74089525487354
 p    1 1.00
             0.2120313                   1
 d    1 1.00
                   0.8                   1

18 0
 s    6 1.00
              4173.511  0.0018347994430301
              627.4579   0.013994995751693
              142.9021   0.068586979179805
              40.23433    0.23224092950117
              12.82021    0.46906985760962
              4.390437    0.36045489058067
 s    3 1.00
             11.626358   -0.11496102288211
               2.71628   -0.16911803366165
              0.772218     1.1458522280731
 s    1 1.00
             0.2120313                   1
 p    3 1.00
             11.626358   0.067580023248036
               2.71628    0.32390711142648
              0.772218    0.74089525487354
 p    1 1.00
             0.2120313                   1
 d    1 1.00
                   0.8                   1

19 0
 s    6 1.00
              4173.511  0.0018347994430301
              627.4579   0.013994995751693
              142.9021   0.068586979179805
              40.23433    0.23224092950117
              12.82021    0.46906985760962
              4.390437    0.36045489058067
 s    3 1.00
             11.626358   -0.11496102288211
               2.71628   -0.16911803366165
              0.772218     1.1458522280731
 s    1 1.00
             0.2120313                   1
 p    3 1.00
             11.626358   0.067580023248036
               2.71628    0.32390711142648
              0.772218    0.74089525487354
 p    1 1.00
             0.2120313                   1
 d    1 1.00
                   0.8                   1

20 0
 s    3 1.00
             18.731137    0.03349459952309
             2.8253937    0.23472694665786
             0.6401217    0.81375731841339
 s    1 1.00
             0.1612778                   1

21 0
 s    3 1.00
             18.731137    0.03349459952309
             2.8253937    0.23472694665786
             0.6401217    0.81375731841339
 s    1 1.00
             0.1612778                   1

22 0
 s    3 1.00
             18.731137    0.03349459952309
             2.8253937    0.23472694665786
             0.6401217    0.81375731841339
 s    1 1.00
             0.1612778                   1

23 0
 s    3 1.00
             18.731137    0.03349459952309
             2.8253937    0.23472694665786
             0.6401217    0.81375731841339
 s    1 1.00
             0.1612778                   1

24 0
 s    3 1.00
             18.731137    0.03349459952309
             2.8253937    0.23472694665786
             0.6401217    0.81375731841339
 s    1 1.00
             0.1612778                   1

25 0
 s    3 1.00
             18.731137    0.03349459952309
             2.8253937    0.23472694665786
             0.6401217    0.81375731841339
 s    1 1.00
             0.1612778                   1

26 0
 s    3 1.00
             18.731137    0.03349459952309
             2.8253937    0.23472694665786
             0.6401217    0.81375731841339
 s    1 1.00
             0.1612778                   1

27 0
 s    3 1.00
             18.731137    0.03349459952309
             2.8253937    0.23472694665786
             0.6401217    0.81375731841339
 s    1 1.00
             0.1612778                   1

28 0
 s    3 1.00
             18.731137    0.03349459952309
             2.8253937    0.23472694665786
             0.6401217    0.81375731841339
 s    1 1.00
             0.1612778                   1

29 0
 s    3 1.00
             18.731137    0.03349459952309
             2.8253937    0.23472694665786
             0.6401217    0.81375731841339
 s    1 1.00
             0.1612778                   1

30 0
 s    3 1.00
             18.731137    0.03349459952309
             2.8253937    0.23472694665786
             0.6401217    0.81375731841339
 s    1 1.00
             0.1612778                   1

31 0
 s    3 1.00
             18.731137    0.03349459952309
             2.8253937    0.23472694665786
             0.6401217    0.81375731841339
 s    1 1.00
             0.1612778                   1

32 0
 s    3 1.00
             18.731137    0.03349459952309
             2.8253937    0.23472694665786
             0.6401217    0.81375731841339
 s    1 1.00
             0.1612778                   1

[5d]
[7f]
[9g]

[MO]
 Sym= A
 Ene=               0
 Spin= Alpha
 Occup=    1.00000
   1    0.0012957218581102
   2    0.0051178402170715
   3    -0.015753731994554
   4     0.024999194372719
   5     -0.02550154697646
   6    -0.0029559078552502
   7    6.6062267523186e-07
   8    2.1909464446663e-06
   9    0.0068126347752196
  10    -9.4569267635801e-07
  11    -7.3381768874121e-06
  12    -0.020986613106737
  13    7.8167773796949e-06
  14    8.3775278641676e-07
  15    -0.014273977886148
  16    -5.2846361605012e-06
  17    -8.4422793075115e-06
  18     -0.38267955332839
  19    0.00021467311847725
  20    7.2185070996523e-06
  21      0.66227742478606
  22    -3.3945603383907e-06
  23      -0.2010822825877
  24    0.00011266037665043
  25    3.8804651318122e-06
  26      0.34800329751125
  27    -2.081976466239e-06
  28    0.00043108771501275
  29    0.00030602695013314
  30    -0.0010475545546303
  31    0.00033460336915138
  32    -4.3064308568265e-07
  33    -0.00039285547882083
  34    -0.00027162613337848
  35    0.0014750258240193
  36    0.0052400677939415
  37    -0.019572318858803
  38     0.017836742863042
  39     0.026061108440062
  40    0.0025935387731593
  41    -1.9110334953053e-07
  42    1.7888429441652e-07
  43    -0.012540011016265
  44    7.1042067832809e-07
  45    -1.4197295899589e-06
  46    -0.013804124848853
  47    6.4207170157808e-07
  48    -4.793611346667e-06
  49    -0.0086675336561687
  50    -2.4021365369931e-06
  51    -6.8788384713092e-06
  52    0.0069643368531564
  53    -3.0104559291296e-06
  54    1.8699748710348e-07
  55    -0.012057087181518
  56    2.8600965848059e-07
  57    0.00075831275903334
  58    -1.9392002130449e-06
  59    7.1011944963427e-07
  60    -0.0013100554410729
  61    7.6988903273034e-08
  62    -0.0012917567631911
  63    0.0023208653502654
  64    0.00010640638862031
  65    -0.00099901373626457
  66    1.1239109422654e-07
  67    -0.0029972142626341
  68    2.7524263011439e-05
  69     0.001633813174646
  70    -0.001117088760098
  71    -0.0094442182118844
  72    -0.031610960246642
  73    -0.016804232248799
  74     0.038099668877718
  75     -0.02734285268655
  76    -0.017479303571623
  77     0.033859130830437
  78    0.0030077775471507
  79    0.00029589747166472
  80      0.00149257537277
  81    -0.001174724055058
  82    -0.00095149537355709
  83    0.0016309670816488
  84      -0.0011090079265
  85    -0.0094350127833724
  86    -0.031602190865188
  87      0.04141075851088
  88    -0.0045423965718564
  89    -0.027337323279706
  90     0.038083496173848
  91    -0.0018374380479895
  92    0.0015104279829933
  93    0.00067500351620387
  94    -0.0024927073801004
  95    -0.0020372183475674
  96    0.00073451498627901
  97    0.0016271862934897
  98    -0.0011015084051496
  99    -0.009412253673538
 100    -0.031602545345858
 101    -0.024623718520165
 102    -0.033637908445021
 103     -0.02733607517735
 104    -0.020626489974464
 105    -0.032096725397601
 106    -0.00073561048345587
 107    -0.00097442241831255
 108    0.0009962183909576
 109    -0.0033316053852737
 110    0.00022023583083261
 111      0.01163220780195
 112    0.0070118837535477
 113     0.011614990686177
 114    0.0069971172171027
 115     0.011599868519145
 116    0.0069854903450493
 117    0.0008982989955651
 118    -0.0012684952621964
 119    -0.0041064138416302
 120      0.01007319170343
 121    -0.016534880577886
 122    0.0065365577171542
 123    -0.0050316550085442
 124    -0.0069917200802762
 125    0.0025492805115764
 126    8.7993171883113e-05
 127    0.0012875744718909
 128    -0.0032734777293739
 129    -0.0047044531976267
 130    -0.0014116616602828
 131     0.017629349261174
 132     0.018025394955588
 133    -0.005539507989703
 134    -0.0069997928566069
 135    -0.012157537832995
 136     -0.01287370114262
 137    0.00089748375196191
 138    -0.0012667998441155
 139    -0.0041038226118769
 140     0.010075747698164
 141     0.013918053749723
 142      0.01106670212272
 143    -0.0050319861548785
 144    0.0057033758793158
 145    0.0047813798699961
 146    0.00059278436790627
 147    0.00057529579978275
 148    0.0036086558585445
 149    -0.004413598497122
 150    0.0018230849752321
 151    0.00090105486063117
 152    -0.0012730800811204
 153    -0.0041200543950957
 154      0.01007065302729
 155    0.0026159799396144
 156    -0.017608288636538
 157    -0.0050427586818251
 158    0.0012867330874197
 159    -0.0073518331110162
 160    0.0055020339560068
 161    -0.0018669993965044
 162    -0.0003358709226062
 163    -0.0015819737722094
 164    -0.00041110328635381
 165    -0.012169016853411
 166    -0.012886203793631
 167    -0.0055238610518063
 168    -0.0069854553660767
 169    -0.0011174521490649
 170    0.0019605648234362
 171    0.0088890638264245
 172    -0.0047884725845659
 173    0.0025955813261866
 174    -0.0012836082999254
 175    -0.0032108078075255
 176     0.006332634270878
 177    -0.0020854860252136
 178    0.00010674320789484
 179    -1.7871916180227e-05
 180    -1.7933073559122e-05
 181    -0.00024086412531673
 182    5.1845665152907e-05
 183    -0.0011175621551418
 184    0.0019613211870681
 185    0.0088881082649973
 186    -0.0047891154284753
 187    -0.0024097108350554
 188    -0.0016057297677945
 189    -0.0032107271810819
 190    -0.0049730648760873
 191    -0.0044411888020597
 192    0.00012965992241811
 193    -3.5938465883757e-05
 194    3.318914176427e-05
 195    -0.00022776780472384
 196    -4.1431345836869e-05
 197    -0.0011163092280505
 198    0.0019582376490016
 199    0.0088829468077129
 200    -0.0047834744118643
 201    -0.0001853208103005
 202    0.0028868667877382
 203    -0.0032065458284861
 204    -0.001359678671775
 205    0.0065226986421712
 206    0.00015625614610799
 207    5.387402446185e-05
 208    -1.5244432018869e-05
 209    -0.00021199872146957
 210    -1.0445505048902e-05
 211     0.017627382690645
 212     0.018023182035799
 213    -0.012171483721684
 214     -0.01288788440963
 215      0.01763998420713
 216     0.018024892724244
 217    -0.0055351955200136
 218    -0.0069924876508448
 219    0.00093116758623191
 220    -0.00010015077202305
 221    -0.00035263303921482
 222    -0.00042232040759674
 223    -0.0013922587794491
 224    -0.0014507749348639
 225    0.00093136970055774
 226    -9.8322183564178e-05
 227    -0.00035265452338462
 228    -0.00041975039111989
 229    -0.0013925174280501
 230    -0.0014517406384787
 231    0.00093051217770556
 232    -0.00010253831823289
 233    -0.00035182942985093
 234    -0.00042057351636054
 235    -0.0013910449686547
 236    -0.0014516895214434
 Sym= A
 Ene=               1
 Spin= Alpha
 Occup=    1.00000
   1    -1.0280347463111e-06
   2    -4.4856857563317e-06
   3    1.1503510184171e-05
   4    -2.8397503807259e-05
   5    1.4762086131163e-05
   6    2.5076662248708e-06
   7    -0.00092311599825967
   8    -0.0013995377475637
   9    -6.7612291128808e-06
  10    0.0020062814213107
  11    0.0029294753234263
  12    1.1587892877658e-05
  13    -0.0068156060800974
  14    -0.011560839324642
  15    7.432085858824e-06
  16    -0.0029526662368629
  17    -0.0041748551635615
  18     -0.55256976611456
  19      0.41376667046955
  20     0.095982368784948
  21     -0.31942035769817
  22    -0.013257156762343
  23     -0.28871373222158
  24      0.21685248149575
  25     0.050102858022025
  26     -0.16689647478217
  27    -0.0069914529165773
  28    0.0003745265692603
  29    0.0011912230522958
  30    -0.00014252988959442
  31    -0.00048262403757447
  32    -0.00028046097094684
  33    0.00092321074888476
  34    0.00055848803004294
  35    -7.957981822457e-07
  36    -3.0258783298035e-06
  37    1.0067676036758e-05
  38    -1.2905612614549e-05
  39    -2.381788907161e-05
  40    -1.9352759754541e-06
  41    0.00060647709583245
  42    -0.0030964084039117
  43    8.0066701350429e-06
  44    -0.0020188195189495
  45     0.008248718766837
  46    4.2295133600085e-06
  47    0.00091876184960843
  48    -0.015767255316222
  49    8.3573261658131e-06
  50    -0.0020759391028515
  51    0.0025465130085663
  52    -0.0047575781004261
  53     0.010223771351377
  54    -0.0014164681100406
  55    -0.0027393699252606
  56    -0.0037113148877451
  57    -0.0037916891691105
  58    0.0085008011303362
  59    -0.0007663222524301
  60    -0.0021877950310675
  61    -0.0027213637033355
  62    -0.00026097773234737
  63    0.00036164364153714
  64    -6.9305609012329e-05
  65    0.00033812011606359
  66    0.00015820821916467
  67    0.00028198653007796
  68    0.00026902862439759
  69    0.0005352260104483
  70    -0.00073523441261754
  71    -0.0019172872841176
  72     -0.01706972567278
  73    -0.0071813983527946
  74     0.018848958866882
  75    -0.012008655860596
  76    -0.0080259104646846
  77     0.013960732054059
  78     0.001369406925897
  79    0.00074236738377668
  80    0.00087936344935757
  81    -0.0020015529121548
  82    -0.00047402735254819
  83    0.0031639314526673
  84    -0.0079230778906708
  85    -0.013878864396644
  86     0.011534048825306
  87    -0.038817861090739
  88    -0.032775934726688
  89     0.010078313895914
  90    -0.031557155974404
  91    -0.023330453599823
  92    0.0017374422387766
  93    -0.0025565204292191
  94    1.1624190386794e-05
  95    0.0010424624525232
  96    -0.0018045741145431
  97    -0.0036971212703045
  98    0.0086507713837311
  99     0.015783974924654
 100     0.005567504144514
 101     0.021757013804718
 102    -0.034305201999276
 103    0.0019551105741087
 104     0.012549940030057
 105    -0.025005810447472
 106    0.00041811110036002
 107    -0.0020560014913878
 108    0.0020418532607093
 109    0.0029987470805796
 110    0.0017163325484622
 111    0.0068794240310521
 112    0.0079871944688403
 113     0.014401065550229
 114    0.0052366060553161
 115    -0.021284406303686
 116    -0.013227975154666
 117    9.1653820400082e-05
 118    4.2756029297045e-05
 119    -0.0022466926816372
 120    -0.0030138384563218
 121     0.013552407485805
 122     0.016050417808786
 123    0.0032213079351692
 124    0.0027203175466317
 125    -0.0010942041273628
 126    0.0015562014846339
 127    -0.0043898741335062
 128    -0.0022929484391381
 129    0.0033594793325241
 130    -0.0020757760618112
 131    -0.0023658087593692
 132    -0.00019974426165743
 133    -0.016228360611034
 134    -0.015468316136422
 135     0.018068611201633
 136     0.018668706895641
 137    -0.00071586503226279
 138    0.00052385493036519
 139    0.0067447426152543
 140    -0.0032043613177674
 141    -0.016219283676546
 142      0.01390296609935
 143    -0.0010479346612557
 144    -0.0053511631362682
 145    0.00045621809078717
 146    0.0028952809806097
 147    -0.0040243489320882
 148    0.00020758761035382
 149    0.0032411011053828
 150    0.0023497111561828
 151    0.00062320353570925
 152    -0.00056449060221681
 153    -0.004498028006706
 154    0.0062066949833029
 155    0.00052301957233649
 156    -0.010783349595523
 157    -0.0021647766147442
 158    -0.0026587859593966
 159    -0.007303121011655
 160    0.0029605993839117
 161    -0.00037205100008616
 162    -8.8776783108695e-05
 163    -0.0023151941140048
 164    -0.00017910088095941
 165    -0.0073883956227641
 166    -0.0077973667827173
 167     0.019073286905229
 168     0.013672843548703
 169    -2.8792190150513e-05
 170    6.1607134929525e-05
 171    0.0021875834884489
 172    -0.00039758501650245
 173    -0.0010376542432172
 174    0.00051231003700445
 175    0.00062751285278639
 176    -0.00038409610027096
 177    0.0023927919388365
 178    -2.6829954095792e-05
 179    4.6051325861611e-05
 180    -6.0482671269697e-05
 181    -0.00013767910218182
 182    9.0353373130936e-05
 183    -0.00041224174844865
 184    0.00091379427664869
 185    0.0040587133802571
 186    -0.0018498990091604
 187    -0.00010162287058516
 188    -3.3782719617521e-05
 189    -0.00099989201279191
 190    -0.00049624783836232
 191    0.0011683017521833
 192    5.5633480748732e-05
 193    6.6392413300378e-05
 194    2.2964944588599e-05
 195    -0.0002025180774851
 196    -9.3821243225836e-05
 197    0.00044233838096444
 198    -0.00097721250144002
 199    -0.0062583987720471
 200    0.0022529863442838
 201    -9.7094770067967e-05
 202    0.0010460212344211
 203    0.00037583622837776
 204    0.00062318274664476
 205    0.0016762047566804
 206    -0.00028005959535334
 207    -0.00010331333684468
 208    1.5043767252219e-05
 209    0.00019542923682935
 210    -1.9336538548682e-05
 211    -0.0088026526290821
 212    -0.0019086204677675
 213    -0.010664724269086
 214    -0.010854071821272
 215     0.011145485503085
 216    0.0020822929293902
 217    -0.0028366912988919