[Molden Format]
made by pyscf v[2.4.0]
[Atoms] (AU)
Fe   1   26     3.17068844873907     0.00098706064664     0.12237737881307
O   2   8     0.00000000000000     0.00000000000000    -0.89004350580623
Fe   3   26    -3.17068844873907    -0.00098706064664     0.12237737881307
Cl   4   17     3.53383895113107    -2.07485195383062     3.76228752659000
Cl   5   17     5.54152580550813    -1.85590924879884    -2.78672786652360
Cl   6   17     4.48169216485503     3.92976278472880    -0.95330240907949
Cl   7   17    -3.53383895113107     2.07485195383062     3.76228752659000
Cl   8   17    -5.54152580550813     1.85590924879884    -2.78672786652360
Cl   9   17    -4.48169216485503    -3.92976278472880    -0.95330240907949
[GTO]
1 0
 s    6 1.00
              61132.62  0.0017661109761772
              9179.342   0.013530379817491
              2090.857   0.066731279099873
              589.2479    0.23148229687757
              188.7543    0.47970579352933
              64.44629    0.35019759527624
 s    6 1.00
               1259.98   0.002438014026839
              299.8761   0.032240480354921
              96.84917    0.12657240139338
               36.3102  -0.031399020345658
              14.72996   -0.62075930683366
              6.066075   -0.45029140495706
 s    6 1.00
              50.43485  -0.0038732559842369
              16.83929   0.071965979707118
              7.192086    0.25565909895954
               3.05342   -0.28828369882676
              1.273643   -0.73428219701167
              0.504091   -0.20493529916597
 s    3 1.00
              1.950316   0.056948690305124
              0.736721    0.28829150154463
              0.114177    -1.1381590060981
 s    1 1.00
              0.041148                   1
 p    6 1.00
               1259.98  0.0040280186654072
              299.8761   0.031446467387857
              96.84917    0.13683168863389
               36.3102    0.34872357103281
              14.72996    0.46179306164054
              6.066075    0.20430578302906
 p    6 1.00
              50.43485  -0.0070171278804837
              16.83929  -0.028776599509875
              7.192086   0.061813828947182
               3.05342     0.3954945932639
              1.273643    0.49890589150259
              0.504091    0.17912509694913
 p    3 1.00
              1.950316   -0.45937961634956
              0.736721    0.28521391015091
              0.114177    0.90764853230368
 p    1 1.00
              0.041148                   1
 d    3 1.00
              23.14994   0.088769354792419
              6.122368    0.38963192103518
              1.846601    0.70148163787111
 d    1 1.00
              0.504361                   1
 f    1 1.00
                   0.8                   1

2 0
 s    6 1.00
             5484.6717   0.001831099805527
             825.23495   0.013950098518422
             188.04696    0.06844509273075
               52.9645    0.23271427528445
              16.89757    0.47019295006289
             5.7996353    0.35852086192309
 s    3 1.00
             15.539616   -0.11077750382508
             3.5999336   -0.14802630511126
             1.0137618     1.1307670390447
 s    1 1.00
             0.2700058                   1
 p    3 1.00
             15.539616   0.070874299543311
             3.5999336    0.33975279781076
             1.0137618    0.72715859531445
 p    1 1.00
             0.2700058                   1
 d    1 1.00
                   0.8                   1

3 0
 s    6 1.00
              61132.62  0.0017661109761772
              9179.342   0.013530379817491
              2090.857   0.066731279099873
              589.2479    0.23148229687757
              188.7543    0.47970579352933
              64.44629    0.35019759527624
 s    6 1.00
               1259.98   0.002438014026839
              299.8761   0.032240480354921
              96.84917    0.12657240139338
               36.3102  -0.031399020345658
              14.72996   -0.62075930683366
              6.066075   -0.45029140495706
 s    6 1.00
              50.43485  -0.0038732559842369
              16.83929   0.071965979707118
              7.192086    0.25565909895954
               3.05342   -0.28828369882676
              1.273643   -0.73428219701167
              0.504091   -0.20493529916597
 s    3 1.00
              1.950316   0.056948690305124
              0.736721    0.28829150154463
              0.114177    -1.1381590060981
 s    1 1.00
              0.041148                   1
 p    6 1.00
               1259.98  0.0040280186654072
              299.8761   0.031446467387857
              96.84917    0.13683168863389
               36.3102    0.34872357103281
              14.72996    0.46179306164054
              6.066075    0.20430578302906
 p    6 1.00
              50.43485  -0.0070171278804837
              16.83929  -0.028776599509875
              7.192086   0.061813828947182
               3.05342     0.3954945932639
              1.273643    0.49890589150259
              0.504091    0.17912509694913
 p    3 1.00
              1.950316   -0.45937961634956
              0.736721    0.28521391015091
              0.114177    0.90764853230368
 p    1 1.00
              0.041148                   1
 d    3 1.00
              23.14994   0.088769354792419
              6.122368    0.38963192103518
              1.846601    0.70148163787111
 d    1 1.00
              0.504361                   1
 f    1 1.00
                   0.8                   1

4 0
 s    6 1.00
               25180.1  0.0018330003117875
               3780.35   0.014034002387139
               860.474   0.069097011753181
               242.145    0.23745204038983
               77.3349    0.48303408216255
                26.247    0.33985605780843
 s    6 1.00
               491.765  -0.0022974019889149
               116.984  -0.030714026589855
               37.4153   -0.11252809741822
               13.7834   0.045016038971443
               5.45215    0.58935351021719
               2.22588    0.46520640274012
 s    3 1.00
               3.18649    -0.2518312880459
               1.14427   0.061589315011948
              0.420377     1.0601854225489
 s    1 1.00
              0.142657                   1
 p    6 1.00
               491.765  0.0039894005477754
               116.984   0.030318004162896
               37.4153    0.12988001783353
               13.7834     0.3279510450302
               5.45215    0.45352706227276
               2.22588    0.25215403462269
 p    3 1.00
               3.18649   -0.01429901271425
               1.14427    0.32357228771069
              0.420377    0.74350766110453
 p    1 1.00
              0.142657                   1
 d    1 1.00
                  0.75                   1

5 0
 s    6 1.00
               25180.1  0.0018330003117875
               3780.35   0.014034002387139
               860.474   0.069097011753181
               242.145    0.23745204038983
               77.3349    0.48303408216255
                26.247    0.33985605780843
 s    6 1.00
               491.765  -0.0022974019889149
               116.984  -0.030714026589855
               37.4153   -0.11252809741822
               13.7834   0.045016038971443
               5.45215    0.58935351021719
               2.22588    0.46520640274012
 s    3 1.00
               3.18649    -0.2518312880459
               1.14427   0.061589315011948
              0.420377     1.0601854225489
 s    1 1.00
              0.142657                   1
 p    6 1.00
               491.765  0.0039894005477754
               116.984   0.030318004162896
               37.4153    0.12988001783353
               13.7834     0.3279510450302
               5.45215    0.45352706227276
               2.22588    0.25215403462269
 p    3 1.00
               3.18649   -0.01429901271425
               1.14427    0.32357228771069
              0.420377    0.74350766110453
 p    1 1.00
              0.142657                   1
 d    1 1.00
                  0.75                   1

6 0
 s    6 1.00
               25180.1  0.0018330003117875
               3780.35   0.014034002387139
               860.474   0.069097011753181
               242.145    0.23745204038983
               77.3349    0.48303408216255
                26.247    0.33985605780843
 s    6 1.00
               491.765  -0.0022974019889149
               116.984  -0.030714026589855
               37.4153   -0.11252809741822
               13.7834   0.045016038971443
               5.45215    0.58935351021719
               2.22588    0.46520640274012
 s    3 1.00
               3.18649    -0.2518312880459
               1.14427   0.061589315011948
              0.420377     1.0601854225489
 s    1 1.00
              0.142657                   1
 p    6 1.00
               491.765  0.0039894005477754
               116.984   0.030318004162896
               37.4153    0.12988001783353
               13.7834     0.3279510450302
               5.45215    0.45352706227276
               2.22588    0.25215403462269
 p    3 1.00
               3.18649   -0.01429901271425
               1.14427    0.32357228771069
              0.420377    0.74350766110453
 p    1 1.00
              0.142657                   1
 d    1 1.00
                  0.75                   1

7 0
 s    6 1.00
               25180.1  0.0018330003117875
               3780.35   0.014034002387139
               860.474   0.069097011753181
               242.145    0.23745204038983
               77.3349    0.48303408216255
                26.247    0.33985605780843
 s    6 1.00
               491.765  -0.0022974019889149
               116.984  -0.030714026589855
               37.4153   -0.11252809741822
               13.7834   0.045016038971443
               5.45215    0.58935351021719
               2.22588    0.46520640274012
 s    3 1.00
               3.18649    -0.2518312880459
               1.14427   0.061589315011948
              0.420377     1.0601854225489
 s    1 1.00
              0.142657                   1
 p    6 1.00
               491.765  0.0039894005477754
               116.984   0.030318004162896
               37.4153    0.12988001783353
               13.7834     0.3279510450302
               5.45215    0.45352706227276
               2.22588    0.25215403462269
 p    3 1.00
               3.18649   -0.01429901271425
               1.14427    0.32357228771069
              0.420377    0.74350766110453
 p    1 1.00
              0.142657                   1
 d    1 1.00
                  0.75                   1

8 0
 s    6 1.00
               25180.1  0.0018330003117875
               3780.35   0.014034002387139
               860.474   0.069097011753181
               242.145    0.23745204038983
               77.3349    0.48303408216255
                26.247    0.33985605780843
 s    6 1.00
               491.765  -0.0022974019889149
               116.984  -0.030714026589855
               37.4153   -0.11252809741822
               13.7834   0.045016038971443
               5.45215    0.58935351021719
               2.22588    0.46520640274012
 s    3 1.00
               3.18649    -0.2518312880459
               1.14427   0.061589315011948
              0.420377     1.0601854225489
 s    1 1.00
              0.142657                   1
 p    6 1.00
               491.765  0.0039894005477754
               116.984   0.030318004162896
               37.4153    0.12988001783353
               13.7834     0.3279510450302
               5.45215    0.45352706227276
               2.22588    0.25215403462269
 p    3 1.00
               3.18649   -0.01429901271425
               1.14427    0.32357228771069
              0.420377    0.74350766110453
 p    1 1.00
              0.142657                   1
 d    1 1.00
                  0.75                   1

9 0
 s    6 1.00
               25180.1  0.0018330003117875
               3780.35   0.014034002387139
               860.474   0.069097011753181
               242.145    0.23745204038983
               77.3349    0.48303408216255
                26.247    0.33985605780843
 s    6 1.00
               491.765  -0.0022974019889149
               116.984  -0.030714026589855
               37.4153   -0.11252809741822
               13.7834   0.045016038971443
               5.45215    0.58935351021719
               2.22588    0.46520640274012
 s    3 1.00
               3.18649    -0.2518312880459
               1.14427   0.061589315011948
              0.420377     1.0601854225489
 s    1 1.00
              0.142657                   1
 p    6 1.00
               491.765  0.0039894005477754
               116.984   0.030318004162896
               37.4153    0.12988001783353
               13.7834     0.3279510450302
               5.45215    0.45352706227276
               2.22588    0.25215403462269
 p    3 1.00
               3.18649   -0.01429901271425
               1.14427    0.32357228771069
              0.420377    0.74350766110453
 p    1 1.00
              0.142657                   1
 d    1 1.00
                  0.75                   1

[5d]
[7f]
[9g]

[MO]
 Sym= A
 Ene=               0
 Spin= Alpha
 Occup=    1.00000
   1    0.0012673125250349
   2    0.0055260359657351
   3    -0.013650330068989
   4     0.032165305607295
   5    -0.0030494669456496
   6     0.002324457734507
   7    0.0018083318806834
   8    -0.006501412387631
   9    -0.0049786519864413
  10    -0.0033491525480808
  11     0.011300647684822
  12    0.0074004517475785
  13    0.0074361819242579
  14     -0.02756958675365
  15    0.00039178070250624
  16    -0.0055579199307846
  17    0.0095650133818386
  18      0.22277957447206
  19     -0.34061763274187
  20      -0.4955861225177
  21       0.3990431803559
  22      0.18038158541096
  23      0.10868526026832
  24     -0.16719949582708
  25     -0.24307427748699
  26      0.19651528745309
  27      0.08894635479346
  28    0.0018042385623774
  29    -0.0017365451837424
  30    -0.0018801737625968
  31    0.00020217749436949
  32    -0.00096235196964603
  33    0.0019201146223943
  34    0.00038639655700093
  35    0.00014991958824791
  36    0.00028283717801765
  37    0.0015565470272652
  38    -0.00051913865431593
  39    0.00065768281807011
  40    -0.037610466841165
  41    -0.0010585275658885
  42    2.6101321274873e-05
  43      -0.0321212941168
  44    -5.6848120407029e-05
  45    0.0001527469412432
  46    -0.0010064388272993
  47    0.00013215978959597
  48    0.00027315834532854
  49    0.00018373974441374
  50    0.00090704495201314
  51    -0.0017233489099921
  52    0.0061041044617543
  53    0.0096253570955276
  54    -0.0012692924551101
  55    1.7010411466385e-05
  56    -0.0006845716489616
  57    0.0029196781125125
  58    -0.00026184895899178
  59    0.0012544825354271
  60    -0.0036357087991577
  61    -0.00055782128014911
  62    -0.0027719511256623
  63    0.0043837738875834
  64    0.0015406874382784
  65    -0.0058575552837602
  66    0.00050740703390983
  67    -0.0010424060094316
  68    4.6615196325501e-05
  69    -0.00025233918942983
  70    7.2114976613966e-05
  71    0.0014323716706242
  72    -0.001819818245049
  73    0.00035224233143869
  74    -0.0011681415411911
  75    0.0002305256143619
  76    0.00020041618844363
  77    0.00079524653287383
  78    9.5695551255981e-05
  79    -0.00033521511667007
  80    -3.4556591860175e-07
  81    -0.00046901001787943
  82    5.3952029829574e-05
  83    -0.0018291900376472
  84    0.0093086626143362
  85    -0.014119046090843
  86    -0.0089543617358157
  87     -0.01487366972671
  88     0.011419523891766
  89    -0.016514224421719
  90     0.038427650825855
  91    -0.029001310064055
  92     0.041735376856735
  93     0.023672512456959
  94     -0.01938073084226
  95     0.030125045950793
  96    -0.00031454556943633
  97    0.0029915360848551
  98    -0.0012149154640132
  99    0.00074959293840446
 100    -0.001892119525672
 101     0.000435243787431
 102    -0.0023633924713587
 103     0.002831977508317
 104    0.0056179201003559
 105     0.014507807877601
 106     0.023815938773742
 107    -0.011062088754324
 108    -0.037375991014371
 109     -0.06182199982612
 110     0.028554409776017
 111    -0.024630461911678
 112     -0.03787953625147
 113     0.019625697062193
 114    -0.0014731952424653
 115    0.0023808231186677
 116    0.0035841885846032
 117    -0.0041456876613167
 118    -0.0026227230620394
 119    0.00048705065402761
 120    -0.0026849737589355
 121    0.0030111654765136
 122    0.0086253491567646
 123     0.012549918422024
 124    -0.0042165508342649
 125    -0.025008928737805
 126    -0.032411616495267
 127     0.011027647361069
 128     0.064760634385743
 129    -0.020833594757617
 130     0.004606891362228
 131     0.041164984369557
 132    -0.002317786411665
 133    0.0023164930451387
 134    0.0036738145221131
 135    -0.003351325982776
 136    -0.0013879662581313
 137    0.00019926528673224
 138    -0.00073793245039913
 139    0.0026315323108625
 140    0.00028826006774924
 141    -0.0015658092820157
 142    0.00055369989363568
 143    0.00059978736293998
 144    0.0042562133861724
 145    -0.0015293571901972
 146    -0.0017983115078014
 147    0.0016650508017434
 148    -0.0013617737796354
 149    -0.00062403597253436
 150    9.2213323735826e-05
 151    0.00017807876912022
 152    -4.1583657920696e-05
 153    -0.00011276033571383
 154    0.00016287962953943
 155    -4.5963020422108e-05
 156    0.0002974501996069
 157    -0.0001607054733731
 158    -0.0036045235992652
 159    0.00074072671351563
 160    2.0028124524281e-05
 161    -0.00063567361697031
 162    -0.0020014746490735
 163    7.0896807053609e-05
 164    0.0014758495657815
 165    -0.0015433688867006
 166    -8.6605184139122e-05
 167    0.0015960357427762
 168    4.5409379328525e-06
 169    1.2440618683664e-05
 170    -6.500895296117e-05
 171    7.1188403990032e-05
 172    -6.3027321724607e-05
 173    3.5870259885788e-05
 174    1.6714981618482e-05
 175     0.001023586136052
 176    -0.002778342576556
 177    -0.00014268163116282
 178    -7.0580600003641e-05
 179    -0.00068512778606052
 180    0.00056140504140167
 181    0.00025581217528215
 182    0.0017761869031004
 183    -0.00091372063403899
 184    -0.00074741070379867
 185    0.0016731908666522
 186    -1.4446733502821e-05
 187    -9.6193736794615e-05
 188    -3.7974577531349e-05
 189    -1.5441006783007e-05
 190    -2.6845071259099e-05
 Sym= A
 Ene=               1
 Spin= Alpha
 Occup=    1.00000
   1    0.00070206437530327
   2    0.0031914042602281
   3    -0.0072704404856688
   4     0.020219244128163
   5    -6.0774513835271e-05
   6    0.0014188161063591
   7    -0.0094364155320264
   8    -0.0042023143093172
   9    -0.0030088930064662
  10     0.016178997076801
  11    0.0069269460114273
  12    0.0045239490974427
  13    -0.040174891170534
  14    -0.018257831017803
  15    -0.0033884951293565
  16     0.012402225611195
  17     0.002300931667759
  18     -0.53730831971472
  19    -0.088732060425394
  20     -0.42137680638441
  21     -0.15515549784603
  22     -0.32232492172761
  23     -0.26253844983834
  24    -0.042942904667114
  25     -0.20588215075562
  26    -0.075376916834524
  27     -0.15769823437798
  28    -0.0014617875353043
  29    -0.0026531407508109
  30    -0.0011909150189649
  31    -0.001514881770997
  32    -0.0026495523897336
  33    0.00021456162390691
  34    -0.002565584032292
  35    -0.00086415253272042
  36    0.0023956107252725
  37     0.005301836721766
  38    0.0051101023758494
  39    -0.058557856910848
  40     -0.04060803813847
  41    0.0037439893722111
  42    -0.049282954385955
  43    -0.034767106271017
  44    -0.0017673826067188
  45    0.00099944899790498
  46    -0.0019546792759339
  47    -0.00062911458719567
  48    0.0011893237462004
  49    0.00031892702009056
  50    0.0014826906269566
  51    -0.0032503958013258
  52    0.0098701083421267
  53    0.0035205876471854
  54    -0.0018076965795188
  55    -0.0016617753698857
  56    -0.0005905147510965
  57    0.0038334963579376
  58    0.0027755771901203
  59    0.00064147480850552
  60    -0.0061831101124219
  61    -0.0075612000879184
  62    -0.0035604349764115
  63    0.0016800425634687
  64    -0.0081467759781492
  65    -0.0045215658677856
  66    0.0007477463731462
  67    -0.00054479268520462
  68    0.00034943703243721
  69    -0.00057258408741242
  70    -0.0012980549535153
  71    0.0019930851620796
  72     -0.00137801193444
  73    0.0011839661011216
  74    -0.0013924818163156
  75    -0.0040212092876764
  76    8.9345382331931e-05
  77    0.0008660235711889
  78    0.00032493969253323
  79    -0.00033688551869853
  80    0.00074828373681338
  81    -0.0006132634583148
  82    -0.0014493151153348
  83    8.1855501954283e-05
  84    -0.00055400097755935
  85    0.00014697681256353
  86    0.0044524586308345
  87    0.0035136701435971
  88    -0.026118645706605
  89    -0.013685359733237
  90    -0.009262237441264
  91     0.067974140161221
  92     0.035515401624823
  93    -0.0050868034127308
  94     0.044258854775288
  95     0.022040755034557
  96    0.0051790670088277
  97    -0.00058199178482884
  98    0.0028555263775902
  99    0.0027331028130724
 100    0.00065497028952239
 101    0.0011490953364492
 102    -0.0059447156606707
 103    0.0085891459835232
 104    0.0079354490473392
 105     0.020864839498298
 106    -0.015470660959374
 107    0.0078019333707921
 108    -0.053606487026629
 109     0.039886425731738
 110    -0.020789505745038
 111    -0.034460851776578
 112     0.028190288435259
 113    -0.010173659847448
 114    0.0047876218325592
 115    -0.00031510147847412
 116    0.00034649309018228
 117    -0.0013483280555146
 118     0.002364614335073
 119    -0.0017467683616016
 120    0.0087652378372372
 121    -0.013798600342308
 122    -0.0079581674182949
 123    -0.016125523064912
 124    -0.017954769354882
 125    -0.0041205407584455
 126     0.041219063329195
 127     0.045259446763925
 128     0.011163788359242
 129     0.026372282878898
 130     0.032829393532026
 131    0.0076137386551064
 132    -0.0016570250558531
 133    -0.00043458377295452
 134    0.0012773417688631
 135    0.00079516681287652
 136    0.0025231064181701
 137    0.00025356342055517
 138    -0.0011943360859986
 139    0.0024425589072281
 140    0.0057093665649808
 141    -0.0022130934715433
 142    1.8536547032843e-05
 143    0.0018057638228351
 144    0.0060722680939662
 145    -0.00021811326261301
 146    -0.0050530391849332
 147    0.0024913979835878
 148    -0.0001688924429766
 149    -0.0043799725238165
 150    8.6081992763705e-06
 151    0.00035397162163238
 152    3.0986731477412e-05
 153    -0.00016229341750531
 154    3.7414708211369e-05
 155    6.1376029556981e-05
 156    -0.00025650739141395
 157    0.00070649871796817
 158    0.0001415111067951
 159    -0.00053528202077729
 160    -0.0004010260758597
 161    -0.00077480748066202
 162    0.0015662009243552
 163    0.00091039253214137
 164    0.0018807320235469
 165    0.00064061614346187
 166    0.0024355606392778
 167    0.0028730528636581
 168    8.3066662255533e-05
 169    -3.9173859434585e-05
 170    -5.5241640910664e-05
 171    -5.3142274759386e-05
 172    -6.8071261044595e-05
 173    -0.00021195414855212
 174    0.00097150259898165
 175    -0.0021364305878061
 176    -0.0054248413912201
 177    0.0024570107619226
 178    0.00061560940243013
 179    -0.00083604504695069
 180    -0.0068236077604026
 181    -0.0019884099678308
 182    0.0022097348558896
 183    -0.0023470058549453
 184    -0.0009427793327629
 185    0.00096990803983522
 186    -0.00013975494770955
 187    -0.00015084357510136
 188    -6.644994544716e-05
 189    0.00024120681162695
 190    0.0001868425810633
 Sym= A
 Ene=               2
 Spin= Alpha
 Occup=    1.00000
   1    -0.00025715482074027
   2    -0.001091088727839
   3    0.0028383449112323
   4    -0.0059720551843537
   5    -0.0047901130023029
   6    0.00074708557557814
   7    -0.0054799701054532
   8    0.0022049235734586
   9    -0.0014576313920671
  10      0.01149393017285
  11    -0.0053836114071374
  12    0.0027922915554502
  13    -0.019237310063656
  14    0.0060787617186929
  15    0.0016875723616247
  16     0.018484606859323
  17    -0.010463494650546
  18     -0.41185190780201
  19     -0.22791588295388
  20      0.14103435648837
  21    -0.055132005005537
  22      0.59683754110399
  23     -0.19661558681423
  24     -0.10881051638292
  25     0.067173987529581
  26    -0.025868764368153
  27      0.28490712389246
  28    -0.00021616630872187
  29     -0.00253593033294
  30    -0.0011988698367506
  31    -0.0027698717004167
  32     0.003886200510509
  33    0.0013860843969466
  34    0.0057970285252731
  35    -0.0013654287647158
  36     0.004154593614242
  37    0.0049175375028495
  38     0.010967187271099
  39      0.10397210845711
  40    -0.056297713371426
  41    0.0093082769646646
  42     0.095939482314813
  43    -0.050573829461989
  44    -0.0019421220705244
  45    0.0015750738579761
  46    0.0024813176171773
  47    -0.00051039805357981
  48    -0.0019470018316884
  49    0.00048111489070813
  50    0.0020827668935077
  51    -0.0052471614634142
  52     0.011927642192745
  53     0.010014012650591
  54    -0.0028058746311987
  55    0.0032017325080346
  56    -0.0010002100508509
  57    0.0060794015565984
  58    -0.0055658433929495
  59    0.0011896016156093
  60    -0.0093460197373862
  61     0.013983591693094
  62    -0.0057595002372486
  63    0.0040871496045789
  64     0.005508294035021
  65     -0.00404982676686
  66    0.0008741735134322
  67    -0.00045727814959277
  68    -0.00054261885369545
  69    -0.0014347570011226
  70    0.0022366599963671
  71    0.0017851278882913
  72    -0.0019261173961071
  73    -0.0012571759929936
  74    -0.0028135808219455
  75    0.0066348913711516
  76    0.00021411791832081
  77    0.0011734516863556
  78    -0.00030415106909623
  79    -0.00017389148179067
  80    -0.0012145532796837
  81    -0.00081467197352727
  82    0.0024041031226152
  83    0.0026751661545608
  84    -0.013734779801243
  85      0.02045003541198
  86      0.02737014294267
  87    -0.010512145912058
  88    -0.023517127726662
  89      0.02324738333262
  90      0.02699816238123
  91     0.060731039821615
  92    -0.059702545959386
  93     0.017250957818942
  94     0.042506150607722
  95    -0.045822392576704
  96    0.00063899576535719
  97    0.0033615693875459
  98     0.001787815056234
  99     0.001188478426634
 100    -0.00089165064344851
 101    0.00099113287348277
 102    -0.0048284047705776
 103    0.0086004390264605
 104    0.0062573849057185
 105    0.0080390681030469
 106    -0.0073629073705076
 107    -0.0038447048275293
 108    -0.020736170847237
 109     0.019323860117579
 110      0.00963528962024
 111    -0.014328592889316
 112     0.013372036697259
 113    0.0089329450557174
 114    0.00045310456797272
 115    -0.00027745128013596
 116    0.00048566668184546
 117    -0.00023035690939218
 118    0.0011612745943763
 119    -0.0032166820497846
 120     0.016185984488244
 121     -0.02555132577135
 122    -0.030117189896846
 123    0.0034011496106897
 124    -0.037379244503303
 125     0.018830012806378
 126    -0.0088187776543973
 127     0.095840881288794
 128    -0.048220265160834
 129    -0.0034861802872614
 130     0.071133261220267
 131     -0.03342438386221
 132    0.00029430364205938
 133    3.6545483289094e-05
 134    -0.0019240849512122
 135    -0.0017476272286907
 136    -0.0029872050444502
 137    8.291349794988e-05
 138    -0.00027616046850318
 139    0.0012169084100376
 140    -0.0011124337251701
 141    -0.0001319947159106
 142    0.0015786261149686
 143    -0.00015939466926068
 144    0.00048196818430627
 145    -0.0039633876209014
 146    0.00022610241289393
 147    0.00029879295735942
 148    -0.0054574309129279
 149    0.0018386662103563
 150    0.00011418902972471
 151    5.2058331912926e-05
 152    -0.00011265598991838
 153    4.8558766185131e-05
 154    0.00022375725655374
 155    -0.00023437133554958
 156    0.0011193227617797
 157    -0.002217874280027
 158    -0.0073817005189441
 159    0.0031526849970247
 160    0.00075858376623829
 161    -0.00068874692612082
 162    -0.0086924276485535
 163    -0.001668803234428
 164    0.0015696841838914
 165    -0.0051551607050699
 166    -0.0022217577590814
 167    -0.00053051651433904
 168    -9.5714823128025e-05
 169    3.0030424972797e-05
 170    -6.2245284953329e-05
 171    0.00028786953919773
 172    -9.7853883856266e-07
 173    0.00048352136281219
 174    -0.0019623533113113
 175    0.0057868137915813
 176    0.0038972652402509
 177    -0.0041712282127408
 178    -0.0015870684455991
 179    -0.00079764557738433
 180     0.011466790913192
 181    0.0046923192977254
 182    0.0019213840322513
 183    0.0061795862139101
 184    0.0027717267114374
 185    0.0042160049761488
 186    0.00031437070137471
 187    -5.1529870216393e-05
 188    5.2529449918108e-05
 189    -0.00053644195852826
 190    -0.00050882159735555
 Sym= A
 Ene=               3
 Spin= Alpha
 Occup=    1.00000
   1    0.00063359512138091
   2    0.0022675629816559
   3    -0.0078481206055698
   4    0.0051062303757844
   5    -0.0080805735752057
   6     0.011161217528225
   7    -0.006006757474572
   8    -0.0067859382870364
   9    -0.023491533147136
  10     0.011215830510785
  11      0.01297493215793
  12     0.036585993298385
  13    -0.023839475553507
  14    -0.026804307824083
  15    -0.0073720258014175
  16     0.011647763054347
  17     0.017825035900867
  18     0.028502808510154
  19      0.59489063600447
  20     -0.35839243054978
  21     -0.10254770169818
  22      0.31777404992001
  23     0.011581202295706
  24      0.28418134665991
  25     -0.17050716188183
  26    -0.045424391466352
  27      0.15040140989935
  28    -0.0025920546240399
  29    0.0049617569847767
  30    -0.0016118191803427
  31    0.0033203379108359
  32    0.0029161561660363