[Molden Format]
made by pyscf v[2.4.0]
[Atoms] (AU)
Fe   1   26     3.17068844873907     0.00098706064664     0.12237737881307
O   2   8     0.00000000000000     0.00000000000000    -0.89004350580623
Fe   3   26    -3.17068844873907    -0.00098706064664     0.12237737881307
Cl   4   17     3.53383895113107    -2.07485195383062     3.76228752659000
Cl   5   17     5.54152580550813    -1.85590924879884    -2.78672786652360
Cl   6   17     4.48169216485503     3.92976278472880    -0.95330240907949
Cl   7   17    -3.53383895113107     2.07485195383062     3.76228752659000
Cl   8   17    -5.54152580550813     1.85590924879884    -2.78672786652360
Cl   9   17    -4.48169216485503    -3.92976278472880    -0.95330240907949
[GTO]
1 0
 s    6 1.00
              61132.62  0.0017661109761772
              9179.342   0.013530379817491
              2090.857   0.066731279099873
              589.2479    0.23148229687757
              188.7543    0.47970579352933
              64.44629    0.35019759527624
 s    6 1.00
               1259.98   0.002438014026839
              299.8761   0.032240480354921
              96.84917    0.12657240139338
               36.3102  -0.031399020345658
              14.72996   -0.62075930683366
              6.066075   -0.45029140495706
 s    6 1.00
              50.43485  -0.0038732559842369
              16.83929   0.071965979707118
              7.192086    0.25565909895954
               3.05342   -0.28828369882676
              1.273643   -0.73428219701167
              0.504091   -0.20493529916597
 s    3 1.00
              1.950316   0.056948690305124
              0.736721    0.28829150154463
              0.114177    -1.1381590060981
 s    1 1.00
              0.041148                   1
 p    6 1.00
               1259.98  0.0040280186654072
              299.8761   0.031446467387857
              96.84917    0.13683168863389
               36.3102    0.34872357103281
              14.72996    0.46179306164054
              6.066075    0.20430578302906
 p    6 1.00
              50.43485  -0.0070171278804837
              16.83929  -0.028776599509875
              7.192086   0.061813828947182
               3.05342     0.3954945932639
              1.273643    0.49890589150259
              0.504091    0.17912509694913
 p    3 1.00
              1.950316   -0.45937961634956
              0.736721    0.28521391015091
              0.114177    0.90764853230368
 p    1 1.00
              0.041148                   1
 d    3 1.00
              23.14994   0.088769354792419
              6.122368    0.38963192103518
              1.846601    0.70148163787111
 d    1 1.00
              0.504361                   1
 f    1 1.00
                   0.8                   1

2 0
 s    6 1.00
             5484.6717   0.001831099805527
             825.23495   0.013950098518422
             188.04696    0.06844509273075
               52.9645    0.23271427528445
              16.89757    0.47019295006289
             5.7996353    0.35852086192309
 s    3 1.00
             15.539616   -0.11077750382508
             3.5999336   -0.14802630511126
             1.0137618     1.1307670390447
 s    1 1.00
             0.2700058                   1
 p    3 1.00
             15.539616   0.070874299543311
             3.5999336    0.33975279781076
             1.0137618    0.72715859531445
 p    1 1.00
             0.2700058                   1
 d    1 1.00
                   0.8                   1

3 0
 s    6 1.00
              61132.62  0.0017661109761772
              9179.342   0.013530379817491
              2090.857   0.066731279099873
              589.2479    0.23148229687757
              188.7543    0.47970579352933
              64.44629    0.35019759527624
 s    6 1.00
               1259.98   0.002438014026839
              299.8761   0.032240480354921
              96.84917    0.12657240139338
               36.3102  -0.031399020345658
              14.72996   -0.62075930683366
              6.066075   -0.45029140495706
 s    6 1.00
              50.43485  -0.0038732559842369
              16.83929   0.071965979707118
              7.192086    0.25565909895954
               3.05342   -0.28828369882676
              1.273643   -0.73428219701167
              0.504091   -0.20493529916597
 s    3 1.00
              1.950316   0.056948690305124
              0.736721    0.28829150154463
              0.114177    -1.1381590060981
 s    1 1.00
              0.041148                   1
 p    6 1.00
               1259.98  0.0040280186654072
              299.8761   0.031446467387857
              96.84917    0.13683168863389
               36.3102    0.34872357103281
              14.72996    0.46179306164054
              6.066075    0.20430578302906
 p    6 1.00
              50.43485  -0.0070171278804837
              16.83929  -0.028776599509875
              7.192086   0.061813828947182
               3.05342     0.3954945932639
              1.273643    0.49890589150259
              0.504091    0.17912509694913
 p    3 1.00
              1.950316   -0.45937961634956
              0.736721    0.28521391015091
              0.114177    0.90764853230368
 p    1 1.00
              0.041148                   1
 d    3 1.00
              23.14994   0.088769354792419
              6.122368    0.38963192103518
              1.846601    0.70148163787111
 d    1 1.00
              0.504361                   1
 f    1 1.00
                   0.8                   1

4 0
 s    6 1.00
               25180.1  0.0018330003117875
               3780.35   0.014034002387139
               860.474   0.069097011753181
               242.145    0.23745204038983
               77.3349    0.48303408216255
                26.247    0.33985605780843
 s    6 1.00
               491.765  -0.0022974019889149
               116.984  -0.030714026589855
               37.4153   -0.11252809741822
               13.7834   0.045016038971443
               5.45215    0.58935351021719
               2.22588    0.46520640274012
 s    3 1.00
               3.18649    -0.2518312880459
               1.14427   0.061589315011948
              0.420377     1.0601854225489
 s    1 1.00
              0.142657                   1
 p    6 1.00
               491.765  0.0039894005477754
               116.984   0.030318004162896
               37.4153    0.12988001783353
               13.7834     0.3279510450302
               5.45215    0.45352706227276
               2.22588    0.25215403462269
 p    3 1.00
               3.18649   -0.01429901271425
               1.14427    0.32357228771069
              0.420377    0.74350766110453
 p    1 1.00
              0.142657                   1
 d    1 1.00
                  0.75                   1

5 0
 s    6 1.00
               25180.1  0.0018330003117875
               3780.35   0.014034002387139
               860.474   0.069097011753181
               242.145    0.23745204038983
               77.3349    0.48303408216255
                26.247    0.33985605780843
 s    6 1.00
               491.765  -0.0022974019889149
               116.984  -0.030714026589855
               37.4153   -0.11252809741822
               13.7834   0.045016038971443
               5.45215    0.58935351021719
               2.22588    0.46520640274012
 s    3 1.00
               3.18649    -0.2518312880459
               1.14427   0.061589315011948
              0.420377     1.0601854225489
 s    1 1.00
              0.142657                   1
 p    6 1.00
               491.765  0.0039894005477754
               116.984   0.030318004162896
               37.4153    0.12988001783353
               13.7834     0.3279510450302
               5.45215    0.45352706227276
               2.22588    0.25215403462269
 p    3 1.00
               3.18649   -0.01429901271425
               1.14427    0.32357228771069
              0.420377    0.74350766110453
 p    1 1.00
              0.142657                   1
 d    1 1.00
                  0.75                   1

6 0
 s    6 1.00
               25180.1  0.0018330003117875
               3780.35   0.014034002387139
               860.474   0.069097011753181
               242.145    0.23745204038983
               77.3349    0.48303408216255
                26.247    0.33985605780843
 s    6 1.00
               491.765  -0.0022974019889149
               116.984  -0.030714026589855
               37.4153   -0.11252809741822
               13.7834   0.045016038971443
               5.45215    0.58935351021719
               2.22588    0.46520640274012
 s    3 1.00
               3.18649    -0.2518312880459
               1.14427   0.061589315011948
              0.420377     1.0601854225489
 s    1 1.00
              0.142657                   1
 p    6 1.00
               491.765  0.0039894005477754
               116.984   0.030318004162896
               37.4153    0.12988001783353
               13.7834     0.3279510450302
               5.45215    0.45352706227276
               2.22588    0.25215403462269
 p    3 1.00
               3.18649   -0.01429901271425
               1.14427    0.32357228771069
              0.420377    0.74350766110453
 p    1 1.00
              0.142657                   1
 d    1 1.00
                  0.75                   1

7 0
 s    6 1.00
               25180.1  0.0018330003117875
               3780.35   0.014034002387139
               860.474   0.069097011753181
               242.145    0.23745204038983
               77.3349    0.48303408216255
                26.247    0.33985605780843
 s    6 1.00
               491.765  -0.0022974019889149
               116.984  -0.030714026589855
               37.4153   -0.11252809741822
               13.7834   0.045016038971443
               5.45215    0.58935351021719
               2.22588    0.46520640274012
 s    3 1.00
               3.18649    -0.2518312880459
               1.14427   0.061589315011948
              0.420377     1.0601854225489
 s    1 1.00
              0.142657                   1
 p    6 1.00
               491.765  0.0039894005477754
               116.984   0.030318004162896
               37.4153    0.12988001783353
               13.7834     0.3279510450302
               5.45215    0.45352706227276
               2.22588    0.25215403462269
 p    3 1.00
               3.18649   -0.01429901271425
               1.14427    0.32357228771069
              0.420377    0.74350766110453
 p    1 1.00
              0.142657                   1
 d    1 1.00
                  0.75                   1

8 0
 s    6 1.00
               25180.1  0.0018330003117875
               3780.35   0.014034002387139
               860.474   0.069097011753181
               242.145    0.23745204038983
               77.3349    0.48303408216255
                26.247    0.33985605780843
 s    6 1.00
               491.765  -0.0022974019889149
               116.984  -0.030714026589855
               37.4153   -0.11252809741822
               13.7834   0.045016038971443
               5.45215    0.58935351021719
               2.22588    0.46520640274012
 s    3 1.00
               3.18649    -0.2518312880459
               1.14427   0.061589315011948
              0.420377     1.0601854225489
 s    1 1.00
              0.142657                   1
 p    6 1.00
               491.765  0.0039894005477754
               116.984   0.030318004162896
               37.4153    0.12988001783353
               13.7834     0.3279510450302
               5.45215    0.45352706227276
               2.22588    0.25215403462269
 p    3 1.00
               3.18649   -0.01429901271425
               1.14427    0.32357228771069
              0.420377    0.74350766110453
 p    1 1.00
              0.142657                   1
 d    1 1.00
                  0.75                   1

9 0
 s    6 1.00
               25180.1  0.0018330003117875
               3780.35   0.014034002387139
               860.474   0.069097011753181
               242.145    0.23745204038983
               77.3349    0.48303408216255
                26.247    0.33985605780843
 s    6 1.00
               491.765  -0.0022974019889149
               116.984  -0.030714026589855
               37.4153   -0.11252809741822
               13.7834   0.045016038971443
               5.45215    0.58935351021719
               2.22588    0.46520640274012
 s    3 1.00
               3.18649    -0.2518312880459
               1.14427   0.061589315011948
              0.420377     1.0601854225489
 s    1 1.00
              0.142657                   1
 p    6 1.00
               491.765  0.0039894005477754
               116.984   0.030318004162896
               37.4153    0.12988001783353
               13.7834     0.3279510450302
               5.45215    0.45352706227276
               2.22588    0.25215403462269
 p    3 1.00
               3.18649   -0.01429901271425
               1.14427    0.32357228771069
              0.420377    0.74350766110453
 p    1 1.00
              0.142657                   1
 d    1 1.00
                  0.75                   1

[5d]
[7f]
[9g]

[MO]
 Sym= A
 Ene=               0
 Spin= Alpha
 Occup=    1.00000
   1    -0.029016387021423
   2     -0.07469978423749
   3      0.42150900799995
   4     0.018183522611067
   5    0.0071534154269304
   6     0.022442913670913
   7    0.0024092289182212
   8    -0.0027542994874655
   9    -0.082227572057591
  10    -0.0049380453587521
  11     0.017542176353783
  12    0.0034115886895673
  13    0.0028967044443605
  14    0.0084708599498254
  15    -0.0031587359280978
  16    -0.0020900436508976
  17    -0.0011208811061359
  18    0.0015498424559517
  19    -0.0025878466523968
  20    -0.0038488259432561
  21    -0.0090292751028389
  22     0.002554311074209
  23    0.00091806602093616
  24    -0.0013680746760778
  25    -0.0030660850871014
  26    -0.0070115491848127
  27    0.0023195199836512
  28    -0.0013961935474792
  29    -0.0012209487619219
  30    0.00084216478375947
  31    0.0015513971044535
  32    -0.00065605232129459
  33     0.001969937255372
  34    0.00045359174826721
  35     0.055785064021858
  36     -0.15065348241596
  37     -0.17578872752165
  38    0.00042437329949947
  39    -1.4023058211405e-05
  40    0.0028956235415111
  41    0.0013444662404215
  42    -0.00029414070731683
  43    -0.0017319183283979
  44     0.002903632797394
  45    -4.1698618752304e-05
  46    -2.2067798749082e-05
  47    -0.0062173705718348
  48    6.1679283504456e-05
  49    -0.031285720754661
  50    -0.083152797277869
  51      0.42212671514946
  52    0.0063533116863295
  53    0.0012477076561746
  54    -0.025003563666435
  55    -0.0010877524556315
  56    -0.0038795657341836
  57     0.082223229046467
  58    0.0052535796168255
  59     0.017662291235929
  60    -0.0072199877781974
  61    7.4999530611551e-05
  62    0.0046692508515037
  63    0.0028178143114681
  64    0.00079044671538832
  65    0.0018781513515062
  66    0.0029131027459833
  67    0.0068314114172731
  68    0.00019900736119404
  69    -0.0085334074585309
  70    -0.00018467268420286
  71    0.0020956630836323
  72    0.0050657415277349
  73    -5.1030105583203e-05
  74    -0.006401602238782
  75    -0.00014699412744926
  76    -0.0012627038748565
  77    0.0010010756382126
  78    -0.00063265287499187
  79     0.001471222964035
  80    -0.0001815530958691
  81    -0.0019952106084908
  82    -0.00024451489283479
  83    -0.0035396978970681
  84     0.018009565895167
  85    -0.038448279316259
  86    -0.023118148550349
  87    -0.028934276384051
  88        0.124691909166
  89     -0.22291636442842
  90    -0.0012052636995436
  91    0.0059406313323622
  92    -0.0096079335605014
  93    0.0008165382141305
  94    0.0013698033630221
  95    -0.002725286140392
  96    -0.00025130295154903
  97    -3.9437873832811e-05
  98    0.00037819145517874
  99    7.3954060891508e-05
 100    1.3459379008955e-05
 101    -0.0047474614789471
 102     0.020226289523912
 103    -0.053328952708938
 104    -0.027831458187273
 105     -0.19411743433426
 106      0.14329336004746
 107      0.19616152134253
 108     0.019037120125916
 109    -0.013057574734678
 110    -0.012307587465975
 111     0.014520495297349
 112    -0.0084926410465306
 113    -0.0090043684868169
 114    -0.00057421454427607
 115    0.0021895224055861
 116    -0.0016184576918837
 117    -0.00046971630735159
 118    0.0013570608868229
 119    -0.0056744343224415
 120     0.021946439110173
 121    -0.054913762404772
 122    -0.028515949848436
 123     -0.11004723093215
 124     -0.26694257248054
 125     0.054196979038935
 126    -0.0051931604498323
 127     -0.01084812159129
 128    0.0042592035022055
 129    -0.0002983568315625
 130    -0.0040296887751126
 131    0.0006542886821055
 132    0.00046270444293806
 133    1.6484699078608e-05
 134    0.00020074825835353
 135    0.00053155053803546
 136    -0.00046536620423857
 137    -0.0037327806511824
 138     0.018710237343845
 139    -0.037584234793993
 140    -0.024388761627155
 141     0.028941880088549
 142     -0.12474563413069
 143     -0.22307586335287
 144    0.0013842164286429
 145    -0.0056045071697976
 146    -0.0087882853085834
 147    -0.00045303970827187
 148    -0.00027024773706323
 149    -0.00091837261557408
 150    -0.00029919873604623
 151    0.00016290318259584
 152    -0.00053522938013065
 153    8.0264440665818e-05
 154    1.4845299819077e-05
 155    -0.0049048887126494
 156     0.023330770140315
 157    -0.055577156279955
 158    -0.028743942513261
 159      0.19431898992854
 160     -0.14348504542581
 161      0.19646682629707
 162    0.0013007654627075
 163    -0.0040209948910918
 164     0.011881928688218
 165    -0.0032777091308975
 166    -0.00086973011851527
 167    0.0038677633151401
 168    -9.4403595904951e-05
 169    -0.00068662564983938
 170    0.00047564204197342
 171    -0.00026902929346389
 172    0.00055830705844236
 173    -0.0061854468948287
 174     0.022402110841136
 175      -0.0543868734225
 176     -0.02924470864182
 177      0.10997019450756
 178      0.26693356814295
 179     0.054150720787301
 180    0.0042509765264333
 181    0.0096099437000461
 182    0.0064993066723352
 183    -0.00039109910479925
 184    0.0018174386479468
 185    0.0017964233833053
 186    0.00041882989294928
 187    -6.433547195246e-05
 188    -0.00022083997967577
 189    0.00035305533682969
 190    -0.00048252248393323
 Sym= A
 Ene=               1
 Spin= Alpha
 Occup=    1.00000
   1    -0.035685095155117
   2    -0.094135157373214
   3      0.50100467949381
   4     0.008556221579061
   5    0.0090922699729897
   6    0.00048627001155368
   7    0.00022745348106749
   8    -0.0059972106902213
   9    -0.0059411327179669
  10    0.0058811361448038
  11     0.027017840452479
  12    -0.0058177491275056
  13    0.0023202042563899
  14    0.0052407971513026
  15    -0.00071960412860203
  16    -0.0012786328191334
  17    -0.0026751633066938
  18    -0.001470366126332
  19    0.0057245020833673
  20    -0.0039127517978612
  21    0.00027306971619584
  22    0.0030602888160407
  23    -0.0011897133521401
  24    0.0055483530826898
  25    -0.0030743007359605
  26    0.00013597784702748
  27     0.002853452618935
  28    -0.00061116295983089
  29    -0.00061793843036792
  30    0.00085768634071532
  31    0.0002117467921252
  32    -0.00070560963056378
  33    0.00047625308095386
  34    0.00054100147882017
  35    0.0004787516480363
  36    -6.3794740994604e-05
  37    0.0010909558175257
  38    -0.0013784484311866
  39    -0.00011931257295364
  40    0.00012316851384817
  41     0.002950222369413
  42    8.1749711851787e-05
  43    -0.00013963723073048
  44    3.4916552261859e-05
  45    0.00028136696075869
  46    -6.0497802210471e-06
  47    -7.7377025204845e-05
  48    2.3018677410464e-05
  49     0.033556278361831
  50     0.096596805186187
  51     -0.50032520672349
  52    0.0020223829427582
  53    -0.0056749681895507
  54    -0.00058492559622183
  55    -0.00061534720708108
  56    0.0072187335275996
  57    -0.0040379449288461
  58    0.0051456161726569
  59    -0.027861851361271
  60    -0.0022222222809969
  61    -0.00073202009471099
  62    -0.00060260762004501
  63    -0.0026040213192077
  64    0.00034650247056384
  65    0.0010791357740612
  66    -0.00011602643850137
  67    0.0014718289167222
  68    -0.00064776083637034
  69    -0.0010864533645567
  70    4.9241634707908e-05
  71    -0.000137809776718
  72    0.0016141862671549
  73    -0.00028673044067842
  74    -0.00088766911036607
  75    -2.9392778932814e-05
  76    0.00041088507921763
  77    -0.00024863688594868
  78    0.00066903168173503
  79    -0.00016095512308216
  80    0.00022707989123329
  81    0.00044357121224536
  82    0.00033993352673803
  83    -0.0055956927849758
  84      0.01856706230137
  85     -0.03859884526808
  86    -0.021114573458888
  87    -0.017062771692792
  88      0.14115611704839
  89     -0.24337343103379
  90    -0.00078038656069417
  91    0.0069454737117576
  92    -0.011396752623348
  93    0.00023077519806257
  94    0.0018951196618809
  95    -0.0032456866609783
  96    -0.00033631023222461
  97    1.6585781831111e-05
  98    0.00024181639859828
  99    6.6253605711834e-05
 100    1.2566178338439e-05
 101    -0.0039766962895993
 102     0.027043896755729
 103    -0.065093047625628
 104    -0.036093423359749
 105     -0.14381752591928
 106      0.14848861563179
 107      0.21578622902715
 108     0.011461609763189
 109    -0.015022470760214
 110    -0.021128542424033
 111    0.0083758541604834
 112    -0.010068654050336
 113    -0.014893962164028
 114    -0.0010048269208408
 115    0.0022312887755506
 116    -0.0018417986439468
 117    -0.00026748293932658
 118    0.0013338794871625
 119    -0.005299650656818
 120     0.027427048141308
 121    -0.066101011446103
 122    -0.035390607195076
 123    -0.055471182863885
 124     -0.25913842474418
 125     0.071744612060343
 126    -0.0022836031313182
 127    -0.010613612673406
 128    0.0054241414932988
 129    -1.444312877756e-05
 130    -0.0037263497747861
 131    0.0015839858272254
 132    0.00044836920969505
 133    0.0001264628995073
 134    0.00023261911287348
 135    0.00079140498541259
 136    -0.0003683479581389
 137    0.0026426329728125
 138    -0.016532492286602
 139     0.037530962176184
 140     0.020841060362435
 141    -0.016972963895942
 142      0.14161313053124
 143      0.24412424502461
 144    -0.0013268806435185
 145    0.0059474887809394
 146     0.010502682267196
 147    -4.197321017391e-05
 148    0.00082056587113654
 149    0.0018800518215158
 150    0.00022758358161727
 151    -2.2350957794744e-05
 152    0.00027997217351472
 153    -9.5409280572313e-05
 154    -4.8170663341939e-06
 155    0.0058528485784185
 156    -0.026722261369876
 157      0.06735321706052
 158     0.036537165232189
 159     -0.14407081790392
 160      0.14885282505276
 161     -0.21669081066544
 162    -0.009694653796199
 163    0.0026461042918617
 164    -0.0040215141913622
 165    -0.0029321965472014
 166    -0.0003497660209278
 167    0.00099057478759262
 168    0.00039458310732357
 169    0.00073549963614742
 170    -0.00068988152804979
 171    6.1801747745755e-05
 172    -0.00043000379377521
 173    0.0059048609198405
 174    -0.026274706594969
 175     0.065270052227305
 176     0.036176899859397
 177    -0.055221489616166
 178     -0.25944033818915
 179    -0.071842678203243
 180    -0.0054453895843812
 181    -0.0097296480442242
 182    0.0018416759203562
 183    -0.0019237177494299
 184    -0.0016013816850402
 185    0.0030770239059269
 186    -0.00030584192569069
 187    0.00011380514271735
 188    0.00055575046405958
 189    -0.00066790140257105
 190    0.00036741889655269
 Sym= A
 Ene=               2
 Spin= Alpha
 Occup=    1.00000
   1    0.0073068011484344
   2     0.018996736853502
   3    -0.058532097084939
   4     0.046490869016118
   5     0.022382054612571
   6     0.043609644899304
   7     0.014405429551619
   8    -0.074365733881472
   9     -0.15594762506862
  10    -0.054537569453823
  11      0.26834596524293
  12    -0.0084357093371953
  13     0.010360787215805
  14    0.0021868242900317
  15    -0.0015348298251188
  16    -0.0044820442303257
  17    -0.0033454294304713
  18    -0.004915306351104
  19     0.012363501923393
  20    -0.0076024100209451
  21    -0.0016677132685962
  22    0.0083598478306909
  23    -0.003806235058584
  24     0.011113758424211
  25    -0.0061363652432927
  26    -0.0012610869074665
  27    0.0070662543786618
  28    -0.00078624148178759
  29    -0.0011592625841029
  30     0.001162697625993
  31    0.00030113755578489
  32    -0.0013235132766128
  33    0.00075438646191997
  34    0.00084425386938712
  35    0.00030850641389231
  36    -0.00091769643232442
  37    0.0043692504519529
  38    0.0017669849731348
  39    -7.9692459715367e-06
  40    0.00063841425156235
  41    0.0043579012238315
  42    -0.00082168243323055
  43    2.2187167687627e-05
  44    4.4048020119281e-06
  45    0.0005331886215622
  46    -2.5050943161644e-05
  47    2.025663120346e-05
  48    0.00011652469796523
  49    -0.0032727554924316
  50    -0.015684074149534
  51     0.060425219446569
  52    -0.005433219622395
  53    -0.011698712971627
  54     0.045835529016389
  55     0.012525048668611
  56     0.075617628005215
  57     -0.15504573158725
  58    -0.055973428399708
  59     -0.26593658083309
  60     0.005590601109173
  61    -0.0004391325397124
  62     0.013476275597435
  63    -0.0073218487746155
  64    0.0021677388177526
  65    -0.0032252101923268
  66    -0.00030603942850469
  67    -0.0026881030305905
  68    0.0055798478452151
  69    -0.0011922922914072
  70    0.0021243489992591
  71    -0.00039783422474097
  72    -0.0026181185377041
  73    0.0051925021359062
  74    -0.0016617516502329
  75    0.0024472564162363
  76    0.00010562806140255
  77    6.7994144088729e-05
  78    0.00037832246436667
  79    0.00025366040672992
  80    -0.00044106988211145
  81    0.00042418346335455
  82    0.00015774287073217
  83    -0.0022280008742701
  84     0.017953177984268
  85     -0.04112374892527
  86      -0.0149093221536
  87     0.086907137249373
  88     -0.23772368569984
  89      0.38707878837848
  90    0.0057138298644175
  91    -0.010221019738444
  92     0.016979115712624
  93    0.00097122582569045
  94    0.0016153412332728
  95    -0.0027874873113282
  96    -0.00095344994847285
  97    0.00019556346210069
  98    0.00076891983749743
  99    0.00026516920557985
 100    -3.7070135851784e-05
 101    0.0044195253813641
 102    -0.026522010797013
 103     0.058634414878017
 104     0.028316767553842
 105     -0.18548938361344
 106       0.2602436578338
 107      0.22597322055104
 108     0.062497102198623
 109    -0.049775416992107
 110    -0.081280563844591
 111     0.038081318675469
 112     -0.03215222306099
 113    -0.048716321398205
 114    -0.0018514153126162
 115    0.0042820930286764
 116    -0.0035338712631788
 117    -0.00055895777120649
 118    0.0026529369337962
 119    -0.0063071378458021
 120     0.020289124444629
 121    -0.063473201456661
 122    -0.030693371999136
 123    -0.014887228968635
 124     -0.11062135149847
 125    0.00064687171327017
 126    -4.239463218595e-05
 127    -0.0066041508892904
 128     0.001853725099355
 129    -0.00013597248344347
 130    -0.0074076045727227
 131     0.001926000978021
 132    0.00063830053290553
 133    5.567108365195e-06
 134    1.5258097773987e-05
 135    0.0012215222930197
 136    -0.00024040152838464
 137    0.0055737274705311
 138    -0.018567553990561
 139     0.041393451787719
 140     0.019342665488289
 141     0.086953484061421
 142     -0.23823483795155
 143     -0.38767370284301
 144    0.0046035673879438
 145    -0.012389521853887
 146    -0.019906918169688
 147    0.00045804928072691
 148    -0.0019745239883589
 149    -0.0026729146178276
 150    0.00082778462361108
 151    3.8207059687534e-05
 152    0.00092368314630327
 153    -0.00031336280903088
 154    9.0068025868465e-05
 155    -0.0041132586588442
 156     0.022007024495091
 157    -0.048848557034132
 158    -0.023128752274594
 159     -0.18617261911737
 160      0.26060635586299
 161     -0.22660650474997
 162     -0.01430218375023
 163     0.014712518309534
 164    -0.010235669640097
 165    -0.0029652130195561
 166    0.0029724585320059
 167    -0.0010446526171537
 168    -0.00035857246593011
 169    -0.0010465594481989
 170    0.00069604493423288
 171    -0.00030642540430801
 172    0.00053277114856633
 173    0.0058942022733403
 174    -0.022359115932352
 175     0.062504171878853
 176     0.036375850326976
 177    -0.014683597540656
 178     -0.10984322034753
 179    -0.00025939067186372
 180    -0.0012819455515444
 181    -0.0025714955038435
 182    0.0014809497716195
 183    -0.0005973918827852
 184    0.0011774156902427
 185    0.00078063462149086
 186    -0.0005305734360671
 187    -5.1332321784423e-06
 188    0.00051526513898944
 189    -0.00090406422400574
 190    0.00053849349068418
 Sym= A
 Ene=               3
 Spin= Alpha
 Occup=    1.00000
   1    0.0096810501293455
   2     0.010964651192525
   3    -0.028334734242601
   4    -0.031990824489732
   5    -0.012462055219641
   6    -0.0048604845210356
   7      0.07078118916982
   8    -0.0068415547120507
   9      0.02053355764372
  10     -0.27268777661954
  11     0.031048921632307
  12     0.010469631660731
  13    0.0066075649970803
  14    -0.010828847052283
  15    -0.0012208422055145
  16    -0.0028939005035849
  17    0.0063671464635569
  18    0.00018913441119273
  19    -0.011071330218587
  20     0.006041583650052
  21    -0.0024711134756666
  22    -0.0046669538280872
  23    -0.00029029333343644
  24    -0.0092049120881133
  25    0.0043831463174322
  26    -0.0019956830761888
  27    -0.0035923143401554
  28    0.00055329028048726
  29    0.00034777025750267
  30    -0.00069035348690185
  31    -4.0374636160716e-05