[Molden Format]
made by pyscf v[2.3.0]
[Atoms] (AU)
He   1   2     0.00000000000000     0.00000000000000     0.00000000000000
He   2   2     2.83458918684759     0.00000000000000     0.00000000000000
He   3   2     2.83458918684759     2.83458918684759     0.00000000000000
He   4   2     0.00000000000000     2.83458918684759     0.00000000000000
He   5   2     1.32280828719554     1.32280828719554     4.15739747404314
He   6   2     4.15739747404314     1.32280828719554     4.15739747404314
He   7   2     4.15739747404314     4.15739747404314     4.15739747404314
He   8   2     1.32280828719554     4.15739747404314     4.15739747404314
[GTO]
1 0
 s    3 1.00
             38.421634   0.040139739345788
               5.77803    0.26124609704061
              1.241774    0.79318462463025
 s    1 1.00
              0.297964                   1

2 0
 s    3 1.00
             38.421634   0.040139739345788
               5.77803    0.26124609704061
              1.241774    0.79318462463025
 s    1 1.00
              0.297964                   1

3 0
 s    3 1.00
             38.421634   0.040139739345788
               5.77803    0.26124609704061
              1.241774    0.79318462463025
 s    1 1.00
              0.297964                   1

4 0
 s    3 1.00
             38.421634   0.040139739345788
               5.77803    0.26124609704061
              1.241774    0.79318462463025
 s    1 1.00
              0.297964                   1

5 0
 s    3 1.00
             38.421634   0.040139739345788
               5.77803    0.26124609704061
              1.241774    0.79318462463025
 s    1 1.00
              0.297964                   1

6 0
 s    3 1.00
             38.421634   0.040139739345788
               5.77803    0.26124609704061
              1.241774    0.79318462463025
 s    1 1.00
              0.297964                   1

7 0
 s    3 1.00
             38.421634   0.040139739345788
               5.77803    0.26124609704061
              1.241774    0.79318462463025
 s    1 1.00
              0.297964                   1

8 0
 s    3 1.00
             38.421634   0.040139739345788
               5.77803    0.26124609704061
              1.241774    0.79318462463025
 s    1 1.00
              0.297964                   1

[5d]
[7f]
[9g]

[MO]
 Sym= A
 Ene=               0
 Spin= Alpha
 Occup=    1.00000
   1                     1
   2      0.63414773867185
   3    0.0043628018340984
   4     0.088673329680353
   5    2.9232602947531e-05
   6     0.012523425937776
   7    0.0043628018340984
   8     0.088673329680353
   9     1.56510317656e-06
  10    0.0039863247693011
  11    1.0133347495124e-10
  12    9.2883541043197e-05
  13    6.5615789855664e-15
  14    2.1918381267831e-06
  15    1.0133347495124e-10
  16    9.2883541043197e-05
 Sym= A
 Ene=               1
 Spin= Alpha
 Occup=    1.00000
   1      0.63414773867185
   2                     1
   3     0.088673329680353
   4      0.30208258016077
   5     0.012523425937776
   6     0.091253885236591
   7     0.088673329680353
   8      0.30208258016077
   9    0.0039863247693011
  10     0.045212490539855
  11    9.2883541043197e-05
  12    0.0044685650336541
  13    2.1918381267831e-06
  14    0.00044164949158008
  15    9.2883541043197e-05
  16    0.0044685650336541
 Sym= A
 Ene=               2
 Spin= Alpha
 Occup=    1.00000
   1    0.0043628018340984
   2     0.088673329680353
   3                     1
   4      0.63414773867185
   5    0.0043628018340984
   6     0.088673329680353
   7    2.9232602947531e-05
   8     0.012523425937776
   9    1.1222630851555e-06
  10    0.0035005766909301
  11     1.56510317656e-06
  12    0.0039863247693011
  13    1.0133347495124e-10
  14    9.2883541043197e-05
  15    7.266302160169e-11
  16    8.1612929417572e-05
 Sym= A
 Ene=               3
 Spin= Alpha
 Occup=    1.00000
   1     0.088673329680353
   2      0.30208258016077
   3      0.63414773867185
   4                     1
   5     0.088673329680353
   6      0.30208258016077
   7     0.012523425937776
   8     0.091253885236591
   9    0.0035005766909301
  10     0.041744584531274
  11    0.0039863247693011
  12     0.045212490539855
  13    9.2883541043197e-05
  14    0.0044685650336541
  15    8.1612929417572e-05
  16    0.0041258154229844
 Sym= A
 Ene=               4
 Spin= Alpha
 Occup=    1.00000
   1    2.9232602947531e-05
   2     0.012523425937776
   3    0.0043628018340984
   4     0.088673329680353
   5                     1
   6      0.63414773867185
   7    0.0043628018340984
   8     0.088673329680353
   9    8.0472610754682e-07
  10    0.0030741008279265
  11    1.1222630851555e-06
  12    0.0035005766909301
  13     1.56510317656e-06
  14    0.0039863247693011
  15    1.1222630851555e-06
  16    0.0035005766909301
 Sym= A
 Ene=               5
 Spin= Alpha
 Occup=    1.00000
   1     0.012523425937776
   2     0.091253885236591
   3     0.088673329680353
   4      0.30208258016077
   5      0.63414773867185
   6                     1
   7     0.088673329680353
   8      0.30208258016077
   9    0.0030741008279265
  10     0.038542675196196
  11    0.0035005766909301
  12     0.041744584531274
  13    0.0039863247693011
  14     0.045212490539855
  15    0.0035005766909301
  16     0.041744584531274
 Sym= A
 Ene=               6
 Spin= Alpha
 Occup=    1.00000
   1    0.0043628018340984
   2     0.088673329680353
   3    2.9232602947531e-05
   4     0.012523425937776
   5    0.0043628018340984
   6     0.088673329680353
   7                     1
   8      0.63414773867185
   9    1.1222630851555e-06
  10    0.0035005766909301
  11    7.266302160169e-11
  12    8.1612929417572e-05
  13    1.0133347495124e-10
  14    9.2883541043197e-05
  15     1.56510317656e-06
  16    0.0039863247693011
 Sym= A
 Ene=               7
 Spin= Alpha
 Occup=    1.00000
   1     0.088673329680353
   2      0.30208258016077
   3     0.012523425937776
   4     0.091253885236591
   5     0.088673329680353
   6      0.30208258016077
   7      0.63414773867185
   8                     1
   9    0.0035005766909301
  10     0.041744584531274
  11    8.1612929417572e-05
  12    0.0041258154229844
  13    9.2883541043197e-05
  14    0.0044685650336541
  15    0.0039863247693011
  16     0.045212490539855
 Sym= A
 Ene=               8
 Spin= Alpha
 Occup=    0.00000
   1     1.56510317656e-06
   2    0.0039863247693011
   3    1.1222630851555e-06
   4    0.0035005766909301
   5    8.0472610754682e-07
   6    0.0030741008279265
   7    1.1222630851555e-06
   8    0.0035005766909301
   9                     1
  10      0.63414773867185
  11    0.0043628018340983
  12     0.088673329680353
  13    2.9232602947531e-05
  14     0.012523425937776
  15    0.0043628018340983
  16     0.088673329680353
 Sym= A
 Ene=               9
 Spin= Alpha
 Occup=    0.00000
   1    0.0039863247693011
   2     0.045212490539855
   3    0.0035005766909301
   4     0.041744584531274
   5    0.0030741008279265
   6     0.038542675196196
   7    0.0035005766909301
   8     0.041744584531274
   9      0.63414773867185
  10                     1
  11     0.088673329680353
  12      0.30208258016077
  13     0.012523425937776
  14     0.091253885236591
  15     0.088673329680353
  16      0.30208258016077
 Sym= A
 Ene=              10
 Spin= Alpha
 Occup=    0.00000
   1    1.0133347495124e-10
   2    9.2883541043197e-05
   3     1.56510317656e-06
   4    0.0039863247693011
   5    1.1222630851555e-06
   6    0.0035005766909301
   7    7.266302160169e-11
   8    8.1612929417572e-05
   9    0.0043628018340983
  10     0.088673329680353
  11                     1
  12      0.63414773867185
  13    0.0043628018340983
  14     0.088673329680353
  15    2.9232602947531e-05
  16     0.012523425937776
 Sym= A
 Ene=              11
 Spin= Alpha
 Occup=    0.00000
   1    9.2883541043197e-05
   2    0.0044685650336541
   3    0.0039863247693011
   4     0.045212490539855
   5    0.0035005766909301
   6     0.041744584531274
   7    8.1612929417572e-05
   8    0.0041258154229844
   9     0.088673329680353
  10      0.30208258016077
  11      0.63414773867185
  12                     1
  13     0.088673329680353
  14      0.30208258016077
  15     0.012523425937776
  16     0.091253885236591
 Sym= A
 Ene=              12
 Spin= Alpha
 Occup=    0.00000
   1    6.5615789855664e-15
   2    2.1918381267831e-06
   3    1.0133347495124e-10
   4    9.2883541043197e-05
   5     1.56510317656e-06
   6    0.0039863247693011
   7    1.0133347495124e-10
   8    9.2883541043197e-05
   9    2.9232602947531e-05
  10     0.012523425937776
  11    0.0043628018340983
  12     0.088673329680353
  13                     1
  14      0.63414773867185
  15    0.0043628018340983
  16     0.088673329680353
 Sym= A
 Ene=              13
 Spin= Alpha
 Occup=    0.00000
   1    2.1918381267831e-06
   2    0.00044164949158008
   3    9.2883541043197e-05
   4    0.0044685650336541
   5    0.0039863247693011
   6     0.045212490539855
   7    9.2883541043197e-05
   8    0.0044685650336541
   9     0.012523425937776
  10     0.091253885236591
  11     0.088673329680353
  12      0.30208258016077
  13      0.63414773867185
  14                     1
  15     0.088673329680353
  16      0.30208258016077
 Sym= A
 Ene=              14
 Spin= Alpha
 Occup=    0.00000
   1    1.0133347495124e-10
   2    9.2883541043197e-05
   3    7.266302160169e-11
   4    8.1612929417572e-05
   5    1.1222630851555e-06
   6    0.0035005766909301
   7     1.56510317656e-06
   8    0.0039863247693011
   9    0.0043628018340983
  10     0.088673329680353
  11    2.9232602947531e-05
  12     0.012523425937776
  13    0.0043628018340983
  14     0.088673329680353
  15                     1
  16      0.63414773867185
 Sym= A
 Ene=              15
 Spin= Alpha
 Occup=    0.00000
   1    9.2883541043197e-05
   2    0.0044685650336541
   3    8.1612929417572e-05
   4    0.0041258154229844
   5    0.0035005766909301
   6     0.041744584531274
   7    0.0039863247693011
   8     0.045212490539855
   9     0.088673329680353
  10      0.30208258016077
  11     0.012523425937776
  12     0.091253885236591
  13     0.088673329680353
  14      0.30208258016077
  15      0.63414773867185
  16                     1
