[Molden Format]
made by pyscf v[2.2.1]
[Atoms] (AU)
He   1   2     0.00000000000000     0.00000000000000     0.00000000000000
He   2   2     2.83458918684759     0.00000000000000     0.00000000000000
He   3   2     2.83458918684759     2.83458918684759     0.00000000000000
He   4   2     0.00000000000000     2.83458918684759     0.00000000000000
He   5   2     1.32280828719554     1.32280828719554     4.15739747404314
He   6   2     4.15739747404314     1.32280828719554     4.15739747404314
He   7   2     4.15739747404314     4.15739747404314     4.15739747404314
He   8   2     1.32280828719554     4.15739747404314     4.15739747404314
[GTO]
1 0
 s    3 1.00
             38.421634   0.040139739345788
               5.77803    0.26124609704061
              1.241774    0.79318462463025
 s    1 1.00
              0.297964                   1

2 0
 s    3 1.00
             38.421634   0.040139739345788
               5.77803    0.26124609704061
              1.241774    0.79318462463025
 s    1 1.00
              0.297964                   1

3 0
 s    3 1.00
             38.421634   0.040139739345788
               5.77803    0.26124609704061
              1.241774    0.79318462463025
 s    1 1.00
              0.297964                   1

4 0
 s    3 1.00
             38.421634   0.040139739345788
               5.77803    0.26124609704061
              1.241774    0.79318462463025
 s    1 1.00
              0.297964                   1

5 0
 s    3 1.00
             38.421634   0.040139739345788
               5.77803    0.26124609704061
              1.241774    0.79318462463025
 s    1 1.00
              0.297964                   1

6 0
 s    3 1.00
             38.421634   0.040139739345788
               5.77803    0.26124609704061
              1.241774    0.79318462463025
 s    1 1.00
              0.297964                   1

7 0
 s    3 1.00
             38.421634   0.040139739345788
               5.77803    0.26124609704061
              1.241774    0.79318462463025
 s    1 1.00
              0.297964                   1

8 0
 s    3 1.00
             38.421634   0.040139739345788
               5.77803    0.26124609704061
              1.241774    0.79318462463025
 s    1 1.00
              0.297964                   1

[5d]
[7f]
[9g]

[MO]
 Sym= A
 Ene=               0
 Spin= Alpha
 Occup=    1.00000
   1     -0.32429854226645
   2     -0.31817623657011
   3      0.32419271540658
   4      0.31801728067488
   5     -0.32327261289387
   6     -0.31715771437507
   7      0.32419271540658
   8      0.31801728067488
   9    0.0025848629622062
  10    0.0023337566850561
  11    -0.0034463399736645
  12    -0.0021972529997322
  13    -0.0046042635587868
  14    -0.0054342578421187
  15    -0.0034463399736651
  16    -0.0021972529997333
 Sym= A
 Ene=               1
 Spin= Alpha
 Occup=    1.00000
   1    -1.5903825046073e-15
   2    -3.3785709578603e-15
   3     -0.42262031080855
   4     -0.37219245491526
   5    1.0581861799831e-14
   6    9.3405446786301e-15
   7      0.42262031080857
   8      0.37219245491528
   9    -9.7509298984978e-17
  10    2.7879939632263e-16
  11    0.0036464031211078
  12    0.0017898532823135
  13    6.3289235421235e-16
  14    2.2084180313032e-16
  15    -0.003646403121108
  16    -0.0017898532823143
 Sym= A
 Ene=               2
 Spin= Alpha
 Occup=    1.00000
   1      0.42224087334349
   2      0.37179991733104
   3    0.00031513795611786
   4    0.00041063130073032
   5     -0.42285529184568
   6      -0.3724868961918
   7    0.00031513795613111
   8    0.00041063130074181
   9    -0.0086018299057605
  10    -0.0068368308834174
  11    0.0036185682847458
  12     0.002935415451301
  13    -0.0038491111983202
  14    -0.0048126867986023
  15    0.0036185682847456
  16    0.0029354154513007
 Sym= A
 Ene=               3
 Spin= Alpha
 Occup=    1.00000
   1     -0.27410053878299
   2     -0.21427094060183
   3     -0.27372072732977
   4     -0.21392481037444
   5     -0.27407564117803
   6     -0.21443404104329
   7     -0.27372072732975
   8     -0.21392481037442
   9     0.014318735785201
  10     0.011589737752737
  11    -8.6057762627916e-05
  12    -0.0012941215456631
  13    -0.0001611335107416
  14    -0.0003359624811942
  15    -8.6057762627369e-05
  16    -0.0012941215456628
 Sym= A
 Ene=               4
 Spin= Alpha
 Occup=    1.00000
   1     -0.60935497427443
   2      0.93039803596724
   3      0.60112893117682
   4     -0.92021876315837
   5     -0.58507747537761
   6      0.90394503072735
   7      0.60112893117682
   8     -0.92021876315837
   9    0.0031264107736338
  10    -0.0089500626094482
  11    -0.0064425400737781
  12     0.017520014904395
  13    0.0039240838728098
  14     -0.03174589631795
  15    -0.0064425400737786
  16     0.017520014904395
 Sym= A
 Ene=               5
 Spin= Alpha
 Occup=    1.00000
   1    -1.8403903920635e-13
   2    2.0010105408944e-13
   3     -0.83228221287479
   4      0.90669576339506
   5    1.882971664037e-13
   6    -2.0564838559169e-13
   7      0.83228221287479
   8     -0.90669576339506
   9    3.7970271977692e-15
  10    -8.2019240548504e-15
  11     0.010836422839385
  12    -0.036063628550803
  13    -2.0805711109624e-17
  14    3.3132289045141e-15
  15    -0.010836422839388
  16     0.036063628550817
 Sym= A
 Ene=               6
 Spin= Alpha
 Occup=    1.00000
   1     -0.84261953670623
   2      0.90762176730672
   3    -0.028479704345812
   4     0.028688052855846
   5      0.82077281572726
   6     -0.90448946567343
   7    -0.028479704346186
   8     0.028688052856252
   9     0.014754127041084
  10    -0.035029953626737
  11    -0.0071067254021035
  12     0.029168409342878
  13    0.00037778840684084
  14     0.012572203361661
  15    -0.0071067254020968
  16      0.02916840934286
 Sym= A
 Ene=               7
 Spin= Alpha
 Occup=    1.00000
   1        0.554069434691
   2     -0.41975432991822
   3      0.57804793849411
   4     -0.44400824484132
   5      0.61127425131043
   6     -0.48257073761683
   7      0.57804793849409
   8      -0.4440082448413
   9     -0.02534343387849
  10     0.062834092021893
  11    -0.0037348004744089
  12     0.013770336855053
  13    0.0012278163263987
  14    0.0034935705526704
  15    -0.0037348004744134
  16     0.013770336855058
 Sym= A
 Ene=               8
 Spin= Alpha
 Occup=    0.00000
   1    0.0046042635587862
   2    0.0054342578421185
   3    0.0034463399736649
   4    0.0021972529997328
   5    -0.0025848629622052
   6    -0.0023337566850552
   7    0.0034463399736647
   8    0.0021972529997324
   9      0.32327261289387
  10      0.31715771437507
  11     -0.32419271540658
  12     -0.31801728067488
  13      0.32429854226645
  14      0.31817623657011
  15     -0.32419271540658
  16     -0.31801728067489
 Sym= A
 Ene=               9
 Spin= Alpha
 Occup=    0.00000
   1    1.1725344026717e-15
   2    1.3343090125089e-15
   3    0.0036464031211077
   4    0.0017898532823139
   5    2.0956635409688e-15
   6    1.1259208880585e-15
   7    -0.0036464031211088
   8    -0.0017898532823145
   9    1.3878827695921e-13
  10    1.2179194929864e-13
  11     -0.42262031080855
  12     -0.37219245491527
  13    -1.1797260671098e-13
  14    -1.0473905413765e-13
  15      0.42262031080857
  16      0.37219245491528
 Sym= A
 Ene=              10
 Spin= Alpha
 Occup=    0.00000
   1    -0.0038491111983191
   2    -0.0048126867986022
   3    0.0036185682847461
   4    0.0029354154513009
   5    -0.0086018299057595
   6    -0.0068368308834166
   7    0.0036185682847446
   8    0.0029354154512994
   9     -0.42285529184568
  10      -0.3724868961918
  11    0.00031513795599708
  12    0.00041063130062401
  13      0.42224087334349
  14      0.37179991733104
  15    0.00031513795625445
  16    0.00041063130085007
 Sym= A
 Ene=              11
 Spin= Alpha
 Occup=    0.00000
   1    -0.0001611335107416
   2    -0.00033596248119516
   3    -8.6057762625756e-05
   4    -0.0012941215456619
   5     0.014318735785201
   6     0.011589737752736
   7    -8.6057762626159e-05
   8    -0.0012941215456618
   9     -0.27407564117804
  10      -0.2144340410433
  11     -0.27372072732977
  12     -0.21392481037444
  13     -0.27410053878299
  14     -0.21427094060183
  15     -0.27372072732974
  16     -0.21392481037441
 Sym= A
 Ene=              12
 Spin= Alpha
 Occup=    0.00000
   1    0.0039240838728109
   2    -0.031745896317951
   3    -0.0064425400737791
   4     0.017520014904397
   5    0.0031264107736342
   6    -0.0089500626094491
   7    -0.0064425400737784
   8     0.017520014904396
   9      -0.5850774753776
  10      0.90394503072735
  11      0.60112893117682
  12     -0.92021876315837
  13     -0.60935497427444
  14      0.93039803596724
  15      0.60112893117681
  16     -0.92021876315836
 Sym= A
 Ene=              13
 Spin= Alpha
 Occup=    0.00000
   1    -2.962009519007e-15
   2    5.9217904808735e-15
   3    -0.010836422839388
   4     0.036063628550814
   5    2.7884031182607e-15
   6    -6.1349986664454e-15
   7     0.010836422839385
   8    -0.036063628550805
   9    1.5379170601885e-13
  10    -1.7050044214983e-13
  11      0.83228221287478
  12     -0.90669576339505
  13    -1.4822320020964e-13
  14    1.5828722865029e-13
  15      -0.8322822128748
  16      0.90669576339507
 Sym= A
 Ene=              14
 Spin= Alpha
 Occup=    0.00000
   1    -0.00037778840684024
   2    -0.012572203361662
   3    0.0071067254020983
   4    -0.029168409342863
   5    -0.014754127041084
   6     0.035029953626737
   7    0.0071067254021014
   8    -0.029168409342874
   9     -0.82077281572726
  10      0.90448946567343
  11     0.028479704346153
  12    -0.028688052856218
  13      0.84261953670623
  14     -0.90762176730672
  15      0.02847970434585
  16    -0.028688052855888
 Sym= A
 Ene=              15
 Spin= Alpha
 Occup=    0.00000
   1    0.0012278163263987
   2    0.0034935705526706
   3    -0.0037348004744112
   4     0.013770336855056
   5     -0.02534343387849
   6     0.062834092021893
   7    -0.0037348004744102
   8     0.013770336855055
   9      0.61127425131043
  10     -0.48257073761683
  11       0.5780479384941
  12     -0.44400824484131
  13        0.554069434691
  14     -0.41975432991822
  15      0.57804793849411
  16     -0.44400824484131
