 &FCI NORB=  16,NELEC=16,MS2=0,
  ORBSYM=1,1,1,1,1,1,1,1,1,1,1,1,1,1,1,1,
  ISYM=1,
 &END
 1.702518036949781    1    1    1    1
 0.05074008063769973    1    1    2    1
 0.6564072782107437    1    1    2    2
 -0.001297536678105984    1    1    3    1
 -0.004187442038596973    1    1    3    2
 0.3496867585940509    1    1    3    3
 0.01685199456047499    1    1    4    1
 0.01825784544011043    1    1    4    2
 0.005488577148108    1    1    4    3
 0.3304535456611817    1    1    4    4
 -0.0002202285123871053    1    1    5    1
 -0.0003623346739475079    1    1    5    2
 -5.563609043123306e-06    1    1    5    3
 -0.00149736985956207    1    1    5    4
 0.2479322025052119    1    1    5    5
 -0.001014400565501185    1    1    6    1
 -0.000268362224476983    1    1    6    2
 -0.0005326119886819189    1    1    6    3
 0.006889922368760877    1    1    6    4
 0.002869266477215518    1    1    6    5
 0.23719656375778    1    1    6    6
 -0.00129753667810626    1    1    7    1
 -0.004187442038597105    1    1    7    2
 0.0002647094993064574    1    1    7    3
 -0.0006728816602455541    1    1    7    4
 -5.563609043149234e-06    1    1    7    5
 -0.0005326119886819053    1    1    7    6
 0.3496867585940511    1    1    7    7
 0.01685199456047473    1    1    8    1
 0.01825784544011054    1    1    8    2
 -0.0006728816602457518    1    1    8    3
 -0.0002883636431255134    1    1    8    4
 -0.001497369859562079    1    1    8    5
 0.006889922368760835    1    1    8    6
 0.005488577148107751    1    1    8    7
 0.3304535456611818    1    1    8    8
 -0.002329899100512647    1    1    9    1
 0.001911835433965372    1    1    9    2
 0.0001624843180065609    1    1    9    3
 -0.0001748031386207507    1    1    9    4
 0.0001347050417969079    1    1    9    5
 -0.0002618854556050134    1    1    9    6
 0.0001624843180067196    1    1    9    7
 -0.0001748031386207547    1    1    9    8
 0.2193568605541955    1    1    9    9
 0.003276284598009546    1    1   10    1
 -0.002439167912241216    1    1   10    2
 -0.0008686945507383352    1    1   10    3
 0.001543546998995924    1    1   10    4
 -0.0005030757589936932    1    1   10    5
 0.001067888276782789    1    1   10    6
 -0.0008686945507384592    1    1   10    7
 0.001543546998995896    1    1   10    8
 -0.0007345602644971091    1    1   10    9
 0.2220211010674005    1    1   10   10
 0.0005725216935726279    1    1   11    1
 -0.0003724226279619092    1    1   11    2
 -6.287463978281095e-05    1    1   11    3
 0.0007656955461862969    1    1   11    4
 4.680369842677131e-05    1    1   11    5
 6.616411391726238e-05    1    1   11    6
 -1.93409613240594e-05    1    1   11    7
 -1.092159165051636e-05    1    1   11    8
 4.96888857013791e-06    1    1   11    9
 -0.0002496755296032716    1    1   11   10
 0.1656380959001656    1    1   11   11
 -0.001529886017964369    1    1   12    1
 0.0008449500235773185    1    1   12    2
 -0.0002850120879759197    1    1   12    3
 -0.0008635641892755609    1    1   12    4
 -0.0003135846580931294    1    1   12    5
 0.000382739306550451    1    1   12    6
 0.000164561219318052    1    1   12    7
 -0.0002609404601467439    1    1   12    8
 6.224510159065789e-05    1    1   12    9
 0.0005204933703815918    1    1   12   10
 0.0004139755049449228    1    1   12   11
 0.1641270639072666    1    1   12   12
 -9.362244139892213e-05    1    1   13    1
 3.027028507798848e-05    1    1   13    2
 3.961764546463449e-06    1    1   13    3
 -8.578532628768382e-05    1    1   13    4
 1.245730291975896e-06    1    1   13    5
 0.0003344342467047247    1    1   13    6
 3.961764546465707e-06    1    1   13    7
 -8.578532628777607e-05    1    1   13    8
 5.972433166508526e-06    1    1   13    9
 2.408436275053441e-05    1    1   13   10
 -2.097319871455559e-06    1    1   13   11
 -0.0001778424119778534    1    1   13   12
 0.1385357938765422    1    1   13   13
 0.0005066233409275376    1    1   14    1
 -0.0002123421726271303    1    1   14    2
 4.362829734526498e-05    1    1   14    3
 0.0001249741269601207    1    1   14    4
 -0.0002636206550963457    1    1   14    5
 -5.505602948059781e-05    1    1   14    6
 4.362829734538361e-05    1    1   14    7
 0.00012497412696026    1    1   14    8
 -5.195150071872993e-05    1    1   14    9
 1.66780615183068e-05    1    1   14   10
 -5.395081396520331e-05    1    1   14   11
 0.0008171012704784137    1    1   14   12
 0.000645301481242048    1    1   14   13
 0.1361489605118691    1    1   14   14
 0.0005725216935725424    1    1   15    1
 -0.0003724226279618171    1    1   15    2
 -1.934096132392005e-05    1    1   15    3
 -1.092159165042709e-05    1    1   15    4
 4.680369842675749e-05    1    1   15    5
 6.616411391726776e-05    1    1   15    6
 -6.287463978292532e-05    1    1   15    7
 0.0007656955461861818    1    1   15    8
 4.968888570144958e-06    1    1   15    9
 -0.0002496755296032983    1    1   15   10
 2.266808669044291e-05    1    1   15   11
 -5.746974410050527e-05    1    1   15   12
 -2.097319871495994e-06    1    1   15   13
 -5.395081396515622e-05    1    1   15   14
 0.1656380959001657    1    1   15   15
 -0.001529886017964552    1    1   16    1
 0.000844950023577414    1    1   16    2
 0.0001645612193181523    1    1   16    3
 -0.0002609404601467727    1    1   16    4
 -0.0003135846580931984    1    1   16    5
 0.0003827393065504521    1    1   16    6
 -0.0002850120879759213    1    1   16    7
 -0.0008635641892755624    1    1   16    8
 6.224510159065082e-05    1    1   16    9
 0.0005204933703815638    1    1   16   10
 -5.746974410055166e-05    1    1   16   11
 -2.132406269228208e-05    1    1   16   12
 -0.0001778424119778816    1    1   16   13
 0.0008171012704784181    1    1   16   14
 0.0004139755049447969    1    1   16   15
 0.1641270639072669    1    1   16   16
 0.05074008063770121    2    1    1    1
 0.01628783313532127    2    1    2    1
 0.02868420401446387    2    1    2    2
 -0.0001798420310479835    2    1    3    1
 -0.0003999570201017533    2    1    3    2
 0.005552201571983035    2    1    3    3
 4.086439354004279e-05    2    1    4    1
 0.001578376515709829    2    1    4    2
 7.144379915382021e-05    2    1    4    3
 0.005486077551410805    2    1    4    4
 2.642912528988565e-05    2    1    5    1
 -3.202707132276388e-05    2    1    5    2
 3.305011546209398e-06    2    1    5    3
 -7.995210025872855e-05    2    1    5    4
 0.002931048019005831    2    1    5    5
 -3.487215233225955e-05    2    1    6    1
 -2.937784190701912e-05    2    1    6    2
 -2.427405161573004e-05    2    1    6    3
 0.0002973654930764914    2    1    6    4
 7.421019196147625e-05    2    1    6    5
 0.002633601811143555    2    1    6    6
 -0.0001798420310479941    2    1    7    1
 -0.0003999570201017605    2    1    7    2
 1.852495481346879e-05    2    1    7    3
 -4.340306867334054e-05    2    1    7    4
 3.305011546209175e-06    2    1    7    5
 -2.427405161574138e-05    2    1    7    6
 0.005552201571982909    2    1    7    7
 4.086439354003726e-05    2    1    8    1
 0.001578376515709828    2    1    8    2
 -4.34030686733438e-05    2    1    8    3
 -5.250970534255114e-05    2    1    8    4
 -7.995210025872591e-05    2    1    8    5
 0.000297365493076504    2    1    8    6
 7.144379915386197e-05    2    1    8    7
 0.005486077551410782    2    1    8    8
 5.933649546305009e-05    2    1    9    1
 0.0001930075919342627    2    1    9    2
 1.005123799920868e-07    2    1    9    3
 1.435989444702738e-05    2    1    9    4
 3.639510378920424e-06    2    1    9    5
 -6.651719907075808e-06    2    1    9    6
 1.005123799943306e-07    2    1    9    7
 1.435989444702786e-05    2    1    9    8
 0.0008269859735743685    2    1    9    9
 -0.0002062867142154985    2    1   10    1
 -0.0004154390852351366    2    1   10    2
 -1.417758805450789e-05    2    1   10    3
 1.478613113922967e-06    2    1   10    4
 -1.565573950430893e-05    2    1   10    5
 3.316095381151494e-05    2    1   10    6
 -1.417758805450999e-05    2    1   10    7
 1.478613113921385e-06    2    1   10    8
 -1.3013577607852e-05    2    1   10    9
 0.0008608307375466259    2    1   10   10
 -1.448948540008823e-05    2    1   11    1
 -2.498938036102541e-05    2    1   11    2
 -6.534473884459435e-06    2    1   11    3
 4.012146420725421e-05    2    1   11    4
 -2.652206499133641e-07    2    1   11    5
 5.306270057401757e-06    2    1   11    6
 1.422511753371211e-07    2    1   11    7
 -3.780532753772395e-06    2    1   11    8
 8.922669906900772e-07    2    1   11    9
 -1.102707569476267e-05    2    1   11   10
 0.0007371929693136825    2    1   11   11
 5.005359678231155e-05    2    1   12    1
 8.822716980102549e-05    2    1   12    2
 6.510062703705881e-06    2    1   12    3
 -7.671676458229793e-05    2    1   12    4
 -3.681823795704057e-06    2    1   12    5
 -9.204762668393933e-07    2    1   12    6
 1.444836951616335e-06    2    1   12    7
 5.6707219295068e-06    2    1   12    8
 -6.766112796202307e-06    2    1   12    9
 4.813678084033505e-05    2    1   12   10
 4.726810085016503e-06    2    1   12   11
 0.0007165481988964502    2    1   12   12
 3.113024628924373e-06    2    1   13    1
 3.013711853349142e-07    2    1   13    2
 6.578066613144447e-07    2    1   13    3
 -3.184547720180177e-06    2    1   13    4
 -8.279953576729637e-07    2    1   13    5
 9.757037113748652e-06    2    1   13    6
 6.578066613140654e-07    2    1   13    7
 -3.184547720181267e-06    2    1   13    8
 4.666131407025959e-07    2    1   13    9
 -9.277289329015769e-07    2    1   13   10
 3.329139839438999e-07    2    1   13   11
 -4.460626962343628e-06    2    1   13   12
 0.0006453014812427105    2    1   13   13
 -1.375867414167828e-05    2    1   14    1
 -1.572345996719426e-05    2    1   14    2
 -1.693480015279851e-06    2    1   14    3
 1.101077270815125e-05    2    1   14    4
 -3.060618072102933e-06    2    1   14    5
 -9.565281452661332e-06    2    1   14    6
 -1.693480015277394e-06    2    1   14    7
 1.101077270815245e-05    2    1   14    8
 -1.000116133630151e-06    2    1   14    9
 -3.094511444437915e-06    2    1   14   10
 -3.372603766266155e-06    2    1   14   11
 2.251092745456392e-05    2    1   14   12
 5.370735509637578e-06    2    1   14   13
 0.0006239207077194915    2    1   14   14
 -1.448948540008899e-05    2    1   15    1
 -2.498938036102329e-05    2    1   15    2
 1.422511753389374e-07    2    1   15    3
 -3.780532753771008e-06    2    1   15    4
 -2.652206499132236e-07    2    1   15    5
 5.306270057401421e-06    2    1   15    6
 -6.534473884460248e-06    2    1   15    7
 4.012146420725261e-05    2    1   15    8
 8.922669906894248e-07    2    1   15    9
 -1.102707569476181e-05    2    1   15   10
 5.02894323907649e-07    2    1   15   11
 -8.813013633933121e-07    2    1   15   12
 3.329139839427352e-07    2    1   15   13
 -3.372603766266855e-06    2    1   15   14
 0.0007371929693137008    2    1   15   15
 5.005359678230837e-05    2    1   16    1
 8.822716980102669e-05    2    1   16    2
 1.444836951617183e-06    2    1   16    3
 5.670721929506476e-06    2    1   16    4
 -3.681823795705542e-06    2    1   16    5
 -9.204762668380965e-07    2    1   16    6
 6.510062703704183e-06    2    1   16    7
 -7.671676458229654e-05    2    1   16    8
 -6.766112796201511e-06    2    1   16    9
 4.813678084033747e-05    2    1   16   10
 -8.81301363393706e-07    2    1   16   11
 -2.891429433152861e-06    2    1   16   12
 -4.460626962340322e-06    2    1   16   13
 2.251092745456548e-05    2    1   16   14
 4.726810085015248e-06    2    1   16   15
 0.0007165481988964328    2    1   16   16
 0.6564072782107429    2    2    1    1
 0.02868420401446352    2    2    2    1
 0.5361165315943159    2    2    2    2
 -0.0004620908465769331    2    2    3    1
 -0.002445517998382591    2    2    3    2
 0.3302854834416722    2    2    3    3
 0.0005183680381122333    2    2    4    1
 0.01345479027340709    2    2    4    2
 0.00542499884929421    2    2    4    3
 0.3104315902764231    2    2    4    4
 0.0001224377627412515    2    2    5    1
 -0.0002717799399904633    2    2    5    2
 -1.618611409470346e-05    2    2    5    3
 -0.001181760439861932    2    2    5    4
 0.2370286786338882    2    2    5    5
 -0.0004365854800425089    2    2    6    1
 -0.0002194753303101517    2    2    6    2
 -0.0004306898281213551    2    2    6    3
 0.005705040991871194    2    2    6    4
 0.002574089797853242    2    2    6    5
 0.2274605089547896    2    2    6    6
 -0.0004620908465770555    2    2    7    1
 -0.002445517998382716    2    2    7    2
 0.0001919944501285821    2    2    7    3
 -0.0005096561367005255    2    2    7    4
 -1.618611409473167e-05    2    2    7    5
 -0.0004306898281213152    2    2    7    6
 0.3302854834416727    2    2    7    7
 0.0005183680381121337    2    2    8    1
 0.01345479027340712    2    2    8    2
 -0.000509656136700715    2    2    8    3
 -0.0004304953508207593    2    2    8    4
 -0.001181760439861934    2    2    8    5
 0.005705040991871113    2    2    8    6
 0.005424998849293757    2    2    8    7
 0.3104315902764233    2    2    8    8
 -6.340506083479253e-05    2    2    9    1
 0.0009107495008194451    2    2    9    2
 0.0001646787458756155    2    2    9    3
 -0.0001740824473910752    2    2    9    4
 0.0001195067081198477    2    2    9    5
 -0.0002381612958971849    2    2    9    6
 0.0001646787458757666    2    2    9    7
 -0.0001740824473910811    2    2    9    8
 0.215899816130638    2    2    9    9
 -0.0009488401126287964    2    2   10    1
 -0.000241177915112498    2    2   10    2
 -0.0008237168462169959    2    2   10    3
 0.001427982546069655    2    2   10    4
 -0.0004412693591502797    2    2   10    5
 0.000945835872666662    2    2   10    6
 -0.0008237168462171084    2    2   10    7
 0.001427982546069627    2    2   10    8
 -0.0006872944650888179    2    2   10    9
 0.218500842656792    2    2   10   10
 4.163343957587224e-05    2    2   11    1
 -0.0002215121292365873    2    2   11    2
 -3.848176253049677e-05    2    2   11    3
 0.0006070320316516758    2    2   11    4
 4.831682108920154e-05    2    2   11    5
 4.588477587152791e-05    2    2   11    6
 -2.025389118050587e-05    2    2   11    7
 -1.053926051039304e-05    2    2   11    8
 3.77734434023942e-06    2    2   11    9
 -0.0002108187915401241    2    2   11   10
 0.1628723923917699    2    2   11   11
 3.831487663090227e-05    2    2   12    1
 0.0003299133964599014    2    2   12    2
 -0.000311209969559061    2    2   12    3
 -0.000544445681620971    2    2   12    4
 -0.0003017195769946685    2    2   12    5
 0.0003879480720474169    2    2   12    6
 0.0001606053087028234    2    2   12    7
 -0.000241969176986012    2    2   12    8
 7.993511497548852e-05    2    2   12    9
 0.000348679745127784    2    2   12   10
 0.0003931040268374037    2    2   12   11
 0.1614530077164874    2    2   12   12
 -6.24747663230129e-06    2    2   13    1
 1.925348821137191e-05    2    2   13    2
 1.589074554672848e-06    2    2   13    3
 -7.376467055302704e-05    2    2   13    4
 4.342304332661051e-06    2    2   13    5
 0.0002977984699059374    2    2   13    6
 1.589074554675958e-06    2    2   13    7
 -7.376467055311504e-05    2    2   13    8
 3.840959766992884e-06    2    2   13    9
 2.82457952060363e-05    2    2   13   10
 -3.31069632993305e-06    2    2   13   11
 -0.0001603350052099603    2    2   13   12
 0.1361489605118671    2    2   13   13
 2.556853772479879e-05    2    2   14    1
 -0.0001003855385493083    2    2   14    2
 4.978412223987383e-05    2    2   14    3
 7.695812915063305e-05    2    2   14    4
 -0.00025228843412639    2    2   14    5
 -1.784429814284681e-05    2    2   14    6
 4.978412223998666e-05    2    2   14    7
 7.695812915076403e-05    2    2   14    8
 -4.611866151918316e-05    2    2   14    9
 2.422951554543045e-05    2    2   14   10
 -4.121762331792966e-05    2    2   14   11
 0.0007291838679006388    2    2   14   12
 0.0006239207077186931    2    2   14   13
 0.1338468246924763    2    2   14   14
 4.163343957582898e-05    2    2   15    1
 -0.0002215121292365063    2    2   15    2
 -2.025389118037264e-05    2    2   15    3
 -1.053926051030905e-05    2    2   15    4
 4.831682108918653e-05    2    2   15    5
 4.588477587153573e-05    2    2   15    6
 -3.848176253060761e-05    2    2   15    7
 0.0006070320316515663    2    2   15    8
 3.777344340245553e-06    2    2   15    9
 -0.0002108187915401553    2    2   15   10
 2.013306484129398e-05    2    2   15   11
 -5.229225589763949e-05    2    2   15   12
 -3.310696329973575e-06    2    2   15   13
 -4.121762331787439e-05    2    2   15   14
 0.16287239239177    2    2   15   15
 3.83148766308184e-05    2    2   16    1
 0.0003299133964599891    2    2   16    2
 0.0001606053087029213    2    2   16    3
 -0.0002419691769860393    2    2   16    4
 -0.0003017195769947355    2    2   16    5
 0.0003879480720474184    2    2   16    6
 -0.0003112099695590567    2    2   16    7
 -0.0005444456816209792    2    2   16    8
 7.993511497548378e-05    2    2   16    9
 0.0003486797451277694    2    2   16   10
 -5.229225589768314e-05    2    2   16   11
 -1.476302321737495e-05    2    2   16   12
 -0.0001603350052099889    2    2   16   13
 0.0007291838679006346    2    2   16   14
 0.0003931040268373024    2    2   16   15
 0.1614530077164875    2    2   16   16
 -0.001297536678105965    3    1    1    1
 -0.0001798420310479763    3    1    2    1
 -0.000462090846576915    3    1    2    2
 0.0001229304987963147    3    1    3    1
 -0.0001303360451447347    3    1    3    2
 -0.001293583679311329    3    1    3    3
 -0.0001308949415863961    3    1    4    1
 -0.000433133926349572    3    1    4    2
 -0.0001799039112384533    3    1    4    3
 -0.0004553854466663045    3    1    4    4
 -4.899172405017061e-07    3    1    5    1
 3.564082193862958e-06    3    1    5    2
 1.291459570381678e-06    3    1    5    3
 7.41585668682146e-06    3    1    5    4
 -8.562325018547158e-06    3    1    5    5
 1.104630364637993e-05    3    1    6    1
 1.361674810483547e-05    3    1    6    2
 -1.108817184545007e-05    3    1    6    3
 -1.842112604652951e-05    3    1    6    4
 2.980694116052871e-06    3    1    6    5
 -1.79551667132023e-05    3    1    6    6
 1.247391117132566e-06    3    1    7    1
 7.505435320372631e-06    3    1    7    2
 -5.244410453889907e-07    3    1    7    3
 3.504823995194679e-06    3    1    7    4
 -1.253370257616511e-06    3    1    7    5
 -2.251617518220468e-06    3    1    7    6
 -1.329083823900551e-05    3    1    7    7
 -1.084640497930398e-05    3    1    8    1
 -1.893782540951056e-05    3    1    8    2
 1.108360897074188e-05    3    1    8    3
 1.376334217653615e-05    3    1    8    4
 -2.260299140043685e-06    3    1    8    5
 2.696034734631355e-05    3    1    8    6
 2.997746182278596e-06    3    1    8    7
 -2.273241055333233e-05    3    1    8    8
 1.445580802054554e-06    3    1    9    1
 -8.174780076038814e-06    3    1    9    2
 7.019864938366977e-07    3    1    9    3
 -8.489611015382907e-06    3    1    9    4
 2.706504168766978e-07    3    1    9    5
 -4.888942325791564e-07    3    1    9    6
 1.9540288732959e-07    3    1    9    7
 -4.261769239581452e-07    3    1    9    8
 0.0001148791493260304    3    1    9    9
 -3.125777977788266e-06    3    1   10    1
 1.881113454903751e-05    3    1   10    2
 -1.386756602527909e-06    3    1   10    3
 1.99942660834422e-05    3    1   10    4
 -6.784773859349392e-07    3    1   10    5
 1.3122448887666e-06    3    1   10    6
 -3.865768620672739e-07    3    1   10    7
 9.208763655540061e-07    3    1   10    8
 2.209690083463845e-06    3    1   10    9
 0.0001030552897386174    3    1   10   10
 -2.044706580276979e-06    3    1   11    1
 -4.155581246087068e-06    3    1   11    2
 2.460828722918956e-07    3    1   11    3
 -3.704682512474474e-06    3    1   11    4
 -8.558154875829707e-08    3    1   11    5
 3.397360349178836e-07    3    1   11    6
 1.162138382059183e-08    3    1   11    7
 3.774160093760351e-07    3    1   11    8
 -2.234341591764825e-08    3    1   11    9
 -2.072801013440129e-06    3    1   11   10
 -1.153303800181908e-05    3    1   11   11
 4.920677830341985e-06    3    1   12    1
 8.161107789887158e-06    3    1   12    2
 1.628414804803626e-06    3    1   12    3
 6.301460283599709e-06    3    1   12    4
 4.508698866797449e-07    3    1   12    5
 -1.444535849223485e-06    3    1   12    6
 4.818516863809669e-08    3    1   12    7
 -9.058895734240485e-07    3    1   12    8
 4.352173261015876e-08    3    1   12    9
 6.787063996506352e-06    3    1   12   10
 1.103846850295494e-06    3    1   12   11
 -1.36934909229695e-05    3    1   12   12
 4.472696440017672e-07    3    1   13    1
 9.638630754586707e-07    3    1   13    2
 -1.760205298732497e-07    3    1   13    3
 4.841724223956782e-07    3    1   13    4
 -5.197516427764231e-09    3    1   13    5
 -3.618057368534432e-08    3    1   13    6
 -4.061532131734033e-08    3    1   13    7
 3.35663531073148e-07    3    1   13    8
 1.171077792943568e-08    3    1   13    9
 2.578589804093212e-08    3    1   13   10
 -1.272045121934312e-08    3    1   13   11
 1.013025773732747e-07    3    1   13   12
 -2.097319873837564e-06    3    1   13   13
 -1.4546757791355e-06    3    1   14    1
 -2.385906396454851e-06    3    1   14    2
 2.785089045826995e-07    3    1   14    3
 -1.160695763418554e-06    3    1   14    4
 7.277739021081613e-08    3    1   14    5
 -9.806041820159704e-08    3    1   14    6
 1.493083516277686e-07    3    1   14    7
 -8.361730730738193e-07    3    1   14    8
 -9.892119754138683e-08    3    1   14    9
 2.796648622956727e-08    3    1   14   10
 -8.650192021786316e-08    3    1   14   11
 6.94774294052349e-08    3    1   14   12
 3.329139839335573e-07    3    1   14   13
 -3.310696332257258e-06    3    1   14   14
 -6.468942043046805e-08    3    1   15    1
 1.48413484931524e-06    3    1   15    2
 1.070751851603068e-07    3    1   15    3
 1.618973105347335e-06    3    1   15    4
 1.892699791473758e-07    3    1   15    5
 -5.676817896848421e-07    3    1   15    6
 1.957619249043111e-07    3    1   15    7
 -6.866041367981248e-07    3    1   15    8
 -1.317193834717879e-07    3    1   15    9
 7.044963103976531e-07    3    1   15   10
 5.810553025739987e-08    3    1   15   11
 -2.109637022783228e-07    3    1   15   12
 3.5999777245826e-08    3    1   15   13
 -2.557357526467815e-07    3    1   15   14
 2.902837357930296e-05    3    1   15   15
 5.879565883935182e-07    3    1   16    1
 -4.712863961658705e-06    3    1   16    2
 -1.354200677077867e-07    3    1   16    3
 -5.196743485570379e-06    3    1   16    4
 -4.463831874922284e-07    3    1   16    5
 1.514094975284414e-06    3    1   16    6
 -4.452148491063639e-07    3    1   16    7
 1.784918510668222e-06    3    1   16    8
 9.960211500040723e-07    3    1   16    9
 -3.648225301794796e-06    3    1   16   10
 -6.474987846561772e-08    3    1   16   11
 -4.796934107646757e-08    3    1   16   12
 -6.248193810811178e-07    3    1   16   13
 2.495870902507889e-06    3    1   16   14
 7.231438312785881e-07    3    1   16   15
 2.623958196606203e-05    3    1   16   16
 -0.004187442038596976    3    2    1    1
 -0.0003999570201017605    3    2    2    1
 -0.002445517998382617    3    2    2    2
 -0.0001303360451447314    3    2    3    1
 0.001142453335858293    3    2    3    2
 0.01684392398556269    3    2    3    3
 -0.0001199470307605078    3    2    4    1
 -0.001205230602910472    3    2    4    2
 3.9646319713075e-05    3    2    4    3
 0.0004866417104862939    3    2    4    4
 -9.506940600391649e-06    3    2    5    1
 3.420847241390224e-05    3    2    5    2
 -1.073391332047256e-05    3    2    5    3
 -9.391716117616043e-06    3    2    5    4
 -0.0005335921448199716    3    2    5    5
 3.781765930803902e-05    3    2    6    1
 -1.47454093276309e-05    3    2    6    2
 0.000301485253614009    3    2    6    3
 1.064266130086691e-06    3    2    6    4
 -2.277525193577938e-05    3    2    6    5
 -0.0004361389255734224    3    2    6    6
 7.505435320374735e-06    3    2    7    1
 -2.363495672155509e-06    3    2    7    2
 -1.94407542587317e-05    3    2    7    3
 3.401952344788429e-05    3    2    7    4
 -2.372360927721192e-06    3    2    7    5
 5.46679309333055e-05    3    2    7    6
 -0.001470254211144027    3    2    7    7
 -1.050664380201754e-05    3    2    8    1
 -8.51275432503752e-05    3    2    8    2
 -1.307252098552382e-05    3    2    8    3
 -3.474213439025888e-05    3    2    8    4
 8.655476834643729e-05    3    2    8    5
 -0.0004391250660706863    3    2    8    6
 -7.823578057488575e-05    3    2    8    7
 -0.001160344599405721    3    2    8    8
 -7.376872718988686e-06    3    2    9    1
 1.495832013183132e-05    3    2    9    2
 -2.955262591661857e-05    3    2    9    3
 1.939702573836211e-05    3    2    9    4
 -2.278301205854571e-06    3    2    9    5
 4.720964219044894e-06    3    2    9    6
 -3.119367334894836e-06    3    2    9    7
 5.975081167042235e-06    3    2    9    8
 -0.0009502547597855025    3    2    9    9
 2.953039299892802e-05    3    2   10    1
 -6.836094947637941e-05    3    2   10    2
 5.425082098563659e-05    3    2   10    3
 -6.23362443023578e-05    3    2   10    4
 7.948224941488744e-06    3    2   10    5
 -1.836779376612195e-05    3    2   10    6
 1.186499284464937e-05    3    2   10    7
 -2.536455674355035e-05    3    2   10    8
 3.034605130540867e-06    3    2   10    9
 -0.0009574931513993174    3    2   10   10
 -1.366862317590654e-06    3    2   11    1
 -1.388522969239762e-05    3    2   11    2
 -3.479905701469638e-05    3    2   11    3
 -3.877445656640639e-06    3    2   11    4
 1.394341043283008e-06    3    2   11    5
 -5.948284134735457e-06    3    2   11    6
 9.28990334879974e-07    3    2   11    7
 -3.41486118427941e-06    3    2   11    8
 -9.029294229357684e-08    3    2   11    9
 1.106588103848358e-05    3    2   11   10
 6.339713881791174e-05    3    2   11   11
 8.489409147998401e-07    3    2   12    1
 3.541545592554825e-05    3    2   12    2
 5.238359316480073e-05    3    2   12    3
 2.137145240377957e-05    3    2   12    4
 -4.054015533422883e-06    3    2   12    5
 1.558560359395718e-05    3    2   12    6
 -3.286756954836758e-06    3    2   12    7
 9.467105814762222e-06    3    2   12    8
 -3.037714938478189e-06    3    2   12    9
 -2.409461716834398e-05    3    2   12   10
 -9.859794815227091e-06    3    2   12   11
 9.477065802851011e-05    3    2   12   12
 7.337835041652389e-07    3    2   13    1
 2.019198515860865e-06    3    2   13    2
 9.053232915703102e-06    3    2   13    3
 -6.286744791771635e-07    3    2   13    4
 5.298896137302899e-07    3    2   13    5
 -2.967922033093333e-06    3    2   13    6
 4.602216179630124e-07    3    2   13    7
 -3.894012625081424e-06    3    2   13    8
 -5.057817550545359e-08    3    2   13    9
 -4.119108885455429e-07    3    2   13   10
 -8.650192021766919e-08    3    2   13   11
 9.887935646917531e-07    3    2   13   12
 -5.395081396638739e-05    3    2   13   13
 -1.525689432812976e-06    3    2   14    1
 -7.525675584337196e-06    3    2   14    2
 -2.286097641671086e-05    3    2   14    3
 -9.105586830758817e-07    3    2   14    4
 -4.799692244853479e-07    3    2   14    5
 5.043894511626622e-06    3    2   14    6
 -1.229564781287989e-06    3    2   14    7
 8.043521381496718e-06    3    2   14    8
 7.857488668763212e-07    3    2   14    9
 -9.875540228406344e-07    3    2   14   10
 2.039860531398399e-06    3    2   14   11
 -9.27334844749303e-06    3    2   14   12
 -3.372603766281139e-06    3    2   14   13
 -4.12176233191365e-05    3    2   14   14
 7.948326497635687e-07    3    2   15    1
 2.724174717546311e-07    3    2   15    2
 6.283406647157204e-06    3    2   15    3
 -1.926195548745031e-06    3    2   15    4
 -6.243432676308756e-07    3    2   15    5
 1.59173971193615e-07    3    2   15    6
 -3.649780503163769e-08    3    2   15    7
 -3.834588719791559e-06    3    2   15    8
 6.385377589344164e-07    3    2   15    9
 -2.521968398195049e-06    3    2   15   10
 -4.465014553417375e-07    3    2   15   11
 1.596954689175646e-06    3    2   15   12
 -2.557357526502198e-07    3    2   15   13
 1.189926438965304e-06    3    2   15   14
 -0.0003697060271009467    3    2   15   15
 -4.41184134865621e-06    3    2   16    1
 7.020416670116176e-06    3    2   16    2
 -1.638997813620814e-05    3    2   16    3
 1.021462952804926e-05    3    2   16    4
 2.570221540111385e-06    3    2   16    5
 -4.387623211761006e-06    3    2   16    6
 2.555563416527343e-06    3    2   16    7
 2.372757042952482e-06    3    2   16    8
 -5.395497707250462e-06    3    2   16    9
 1.823745852571186e-05    3    2   16   10
 6.271859638702307e-07    3    2   16   11
 -2.793027571394053e-07    3    2   16   12
 4.194571650828627e-06    3    2   16   13
 -1.488710201600932e-05    3    2   16   14
 -3.347659799491798e-06    3    2   16   15
 -0.000357114477131737    3    2   16   16
 0.3496867585940511    3    3    1    1
 0.00555220157198306    3    3    2    1
 0.3302854834416723    3    3    2    2
 -0.001293583679311334    3    3    3    1
 0.01684392398556267    3    3    3    2
 1.702785111984777    3    3    3    3
 -0.004207946350650123    3    3    4    1
 0.01832416436214104    3    3    4    2
 0.05058034750000225    3    3    4    3
 0.6565953294883173    3    3    4    4
 0.0002704371940138894    3    3    5    1
 -0.0006929015574588593    3    3    5    2
 -0.001270334456238601    3    3    5    3
 -0.004204124084208551    3    3    5    4