[Molden Format]
made by pyscf v[2.3.0]
[Atoms] (AU)
He   1   2     0.00000000000000     0.00000000000000     0.00000000000000
He   2   2     2.83458918684759     0.00000000000000     0.00000000000000
He   3   2     2.83458918684759     2.83458918684759     0.00000000000000
He   4   2     0.00000000000000     2.83458918684759     0.00000000000000
He   5   2     1.32280828719554     1.32280828719554     4.15739747404314
He   6   2     4.15739747404314     1.32280828719554     4.15739747404314
He   7   2     4.15739747404314     4.15739747404314     4.15739747404314
He   8   2     1.32280828719554     4.15739747404314     4.15739747404314
[GTO]
1 0
 s    3 1.00
             38.421634   0.040139739345788
               5.77803    0.26124609704061
              1.241774    0.79318462463025
 s    1 1.00
              0.297964                   1

2 0
 s    3 1.00
             38.421634   0.040139739345788
               5.77803    0.26124609704061
              1.241774    0.79318462463025
 s    1 1.00
              0.297964                   1

3 0
 s    3 1.00
             38.421634   0.040139739345788
               5.77803    0.26124609704061
              1.241774    0.79318462463025
 s    1 1.00
              0.297964                   1

4 0
 s    3 1.00
             38.421634   0.040139739345788
               5.77803    0.26124609704061
              1.241774    0.79318462463025
 s    1 1.00
              0.297964                   1

5 0
 s    3 1.00
             38.421634   0.040139739345788
               5.77803    0.26124609704061
              1.241774    0.79318462463025
 s    1 1.00
              0.297964                   1

6 0
 s    3 1.00
             38.421634   0.040139739345788
               5.77803    0.26124609704061
              1.241774    0.79318462463025
 s    1 1.00
              0.297964                   1

7 0
 s    3 1.00
             38.421634   0.040139739345788
               5.77803    0.26124609704061
              1.241774    0.79318462463025
 s    1 1.00
              0.297964                   1

8 0
 s    3 1.00
             38.421634   0.040139739345788
               5.77803    0.26124609704061
              1.241774    0.79318462463025
 s    1 1.00
              0.297964                   1

[5d]
[7f]
[9g]

[MO]
 Sym= A
 Ene=               0
 Spin= Alpha
 Occup=    1.00000
   1       1.2316462920349
   2     -0.47356261945752
   3    -0.0013261140351246
   4     0.051228934072593
   5    -0.0013253150901399
   6    -0.0031992727111292
   7    -0.0013261140351247
   8     0.051228934072593
   9    -0.008035221499972
  10     0.018037610063501
  11    0.0020136505235445
  12    -0.0061116921997525
  13    -0.00041509776724277
  14    0.0019580989759118
  15    0.0020136505235444
  16    -0.0061116921997526
 Sym= A
 Ene=               1
 Spin= Alpha
 Occup=    1.00000
   1     -0.47356261945752
   2       1.3449818892192
   3     0.051279690441499
   4     -0.23438884189471
   5    -0.0031692421991304
   6     0.041987404528419
   7     0.051279690441499
   8     -0.23438884189471
   9     0.014345385171335
  10    -0.035721771611933
  11    -0.0054435125345473
  12     0.015609934398002
  13    0.0019580989759121
  14    -0.0068638769910909
  15    -0.0054435125345472
  16     0.015609934398002
 Sym= A
 Ene=               2
 Spin= Alpha
 Occup=    1.00000
   1    -0.0013261140351246
   2     0.051279690441499
   3        1.231860346479
   4     -0.47396808333359
   5    -0.001234860022007
   6     0.051091636379685
   7    -0.0013243163423835
   8    -0.0031848473957524
   9    -0.0054996436240917
  10     0.010174114126534
  11    -0.0081343434808563
  12     0.016278721301444
  13     0.002013650523545
  14    -0.0054435125345476
  15    0.0014352746218648
  16    -0.0035157510095323
 Sym= A
 Ene=               3
 Spin= Alpha
 Occup=    1.00000
   1     0.051228934072593
   2     -0.23438884189471
   3     -0.47396808333359
   4       1.3457897904692
   5     0.051164998780625
   6        -0.23422540938
   7    -0.003184847395752
   8     0.041991951398043
   9    0.0091339501408576
  10      -0.0183847957527
  11     0.016278721301444
  12    -0.036123491998896
  13    -0.0061116921997526
  14     0.015609934398002
  15    -0.0035157510095322
  16    0.0079101079694614
 Sym= A
 Ene=               4
 Spin= Alpha
 Occup=    1.00000
   1     -0.00132531509014
   2    -0.0031692421991304
   3    -0.001234860022007
   4     0.051164998780625
   5       1.2321645548078
   6     -0.47455338378758
   7    -0.0012348600220071
   8     0.051164998780625
   9    -0.0036951715262799
  10     0.005677512975766
  11    -0.0054996436240911
  12    0.0091339501408578
  13    -0.008035221499972
  14     0.014345385171334
  15    -0.0054996436240911
  16    0.0091339501408577
 Sym= A
 Ene=               5
 Spin= Alpha
 Occup=    1.00000
   1    -0.0031992727111291
   2     0.041987404528419
   3     0.051091636379685
   4        -0.23422540938
   5     -0.47455338378758
   6       1.3469694413427
   7     0.051091636379685
   8        -0.23422540938
   9    0.0056775129757658
  10    -0.0095079738589901
  11     0.010174114126534
  12    -0.018384795752699
  13     0.018037610063501
  14    -0.035721771611933
  15     0.010174114126534
  16    -0.018384795752699
 Sym= A
 Ene=               6
 Spin= Alpha
 Occup=    1.00000
   1    -0.0013261140351247
   2     0.051279690441499
   3    -0.0013243163423835
   4    -0.0031848473957521
   5    -0.0012348600220071
   6     0.051091636379685
   7        1.231860346479
   8     -0.47396808333359
   9    -0.0054996436240913
  10     0.010174114126534
  11    0.0014352746218646
  12    -0.0035157510095325
  13    0.0020136505235451
  14    -0.0054435125345474
  15    -0.0081343434808565
  16     0.016278721301444
 Sym= A
 Ene=               7
 Spin= Alpha
 Occup=    1.00000
   1     0.051228934072593
   2     -0.23438884189471
   3    -0.0031848473957523
   4     0.041991951398043
   5     0.051164998780625
   6        -0.23422540938
   7     -0.47396808333359
   8       1.3457897904692
   9    0.0091339501408575
  10      -0.0183847957527
  11    -0.0035157510095323
  12    0.0079101079694616
  13    -0.0061116921997529
  14     0.015609934398002
  15     0.016278721301443
  16    -0.036123491998896
 Sym= A
 Ene=               8
 Spin= Alpha
 Occup=    0.00000
   1    -0.008035221499972
   2     0.014345385171335
   3    -0.0054996436240917
   4    0.0091339501408576
   5     -0.00369517152628
   6    0.0056775129757658
   7    -0.0054996436240913
   8    0.0091339501408575
   9       1.2321645548078
  10     -0.47455338378759
  11       -0.001234860022
  12     0.051164998780628
  13    -0.001325315090144
  14    -0.0031692421991321
  15    -0.0012348600219999
  16     0.051164998780628
 Sym= A
 Ene=               9
 Spin= Alpha
 Occup=    0.00000
   1     0.018037610063501
   2    -0.035721771611933
   3     0.010174114126534
   4      -0.0183847957527
   5     0.005677512975766
   6    -0.0095079738589901
   7     0.010174114126534
   8      -0.0183847957527
   9     -0.47455338378759
  10       1.3469694413427
  11     0.051091636379689
  12     -0.23422540937999
  13    -0.0031992727111305
  14     0.041987404528418
  15     0.051091636379689
  16     -0.23422540937999
 Sym= A
 Ene=              10
 Spin= Alpha
 Occup=    0.00000
   1    0.0020136505235445
   2    -0.0054435125345473
   3    -0.0081343434808563
   4     0.016278721301444
   5    -0.005499643624091
   6     0.010174114126534
   7    0.0014352746218646
   8    -0.0035157510095323
   9    -0.0012348600219999
  10     0.051091636379689
  11        1.231860346479
  12     -0.47396808333359
  13    -0.0013261140351173
  14     0.051279690441502
  15    -0.0013243163423866
  16    -0.0031848473957553
 Sym= A
 Ene=              11
 Spin= Alpha
 Occup=    0.00000
   1    -0.0061116921997525
   2     0.015609934398002
   3     0.016278721301444
   4    -0.036123491998896
   5    0.0091339501408579
   6    -0.018384795752699
   7    -0.0035157510095326
   8    0.0079101079694616
   9     0.051164998780628
  10     -0.23422540937999
  11     -0.47396808333359
  12       1.3457897904692
  13     0.051228934072596
  14     -0.23438884189471
  15    -0.0031848473957552
  16     0.041991951398044
 Sym= A
 Ene=              12
 Spin= Alpha
 Occup=    0.00000
   1    -0.00041509776724277
   2    0.0019580989759121
   3     0.002013650523545
   4    -0.0061116921997526
   5    -0.008035221499972
   6     0.018037610063501
   7    0.0020136505235451
   8    -0.0061116921997529
   9    -0.001325315090144
  10    -0.0031992727111305
  11    -0.0013261140351173
  12     0.051228934072596
  13       1.2316462920349
  14     -0.47356261945752
  15    -0.0013261140351175
  16     0.051228934072596
 Sym= A
 Ene=              13
 Spin= Alpha
 Occup=    0.00000
   1    0.0019580989759119
   2    -0.0068638769910909
   3    -0.0054435125345477
   4     0.015609934398002
   5     0.014345385171334
   6    -0.035721771611933
   7    -0.0054435125345475
   8     0.015609934398002
   9    -0.0031692421991321
  10     0.041987404528418
  11     0.051279690441502
  12     -0.23438884189471
  13     -0.47356261945752
  14       1.3449818892192
  15     0.051279690441502
  16     -0.23438884189471
 Sym= A
 Ene=              14
 Spin= Alpha
 Occup=    0.00000
   1    0.0020136505235444
   2    -0.0054435125345472
   3    0.0014352746218648
   4    -0.0035157510095322
   5    -0.0054996436240911
   6     0.010174114126534
   7    -0.0081343434808565
   8     0.016278721301443
   9    -0.0012348600219999
  10     0.051091636379689
  11    -0.0013243163423866
  12    -0.0031848473957551
  13    -0.0013261140351175
  14     0.051279690441502
  15        1.231860346479
  16     -0.47396808333359
 Sym= A
 Ene=              15
 Spin= Alpha
 Occup=    0.00000
   1    -0.0061116921997526
   2     0.015609934398002
   3    -0.0035157510095323
   4    0.0079101079694615
   5    0.0091339501408577
   6    -0.018384795752699
   7     0.016278721301444
   8    -0.036123491998896
   9     0.051164998780628
  10     -0.23422540937999
  11    -0.0031848473957553
  12     0.041991951398044
  13     0.051228934072596
  14     -0.23438884189471
  15     -0.47396808333359
  16       1.3457897904692
