[Molden Format]
made by pyscf v[2.2.1]
[Atoms] (AU)
He   1   2     0.00000000000000     0.00000000000000     0.00000000000000
He   2   2     2.83458918684759     0.00000000000000     0.00000000000000
He   3   2     2.83458918684759     2.83458918684759     0.00000000000000
He   4   2     0.00000000000000     2.83458918684759     0.00000000000000
He   5   2     1.32280828719554     1.32280828719554     4.15739747404314
He   6   2     4.15739747404314     1.32280828719554     4.15739747404314
He   7   2     4.15739747404314     4.15739747404314     4.15739747404314
He   8   2     1.32280828719554     4.15739747404314     4.15739747404314
[GTO]
1 0
 s    3 1.00
             38.421634   0.040139739345788
               5.77803    0.26124609704061
              1.241774    0.79318462463025
 s    1 1.00
              0.297964                   1

2 0
 s    3 1.00
             38.421634   0.040139739345788
               5.77803    0.26124609704061
              1.241774    0.79318462463025
 s    1 1.00
              0.297964                   1

3 0
 s    3 1.00
             38.421634   0.040139739345788
               5.77803    0.26124609704061
              1.241774    0.79318462463025
 s    1 1.00
              0.297964                   1

4 0
 s    3 1.00
             38.421634   0.040139739345788
               5.77803    0.26124609704061
              1.241774    0.79318462463025
 s    1 1.00
              0.297964                   1

5 0
 s    3 1.00
             38.421634   0.040139739345788
               5.77803    0.26124609704061
              1.241774    0.79318462463025
 s    1 1.00
              0.297964                   1

6 0
 s    3 1.00
             38.421634   0.040139739345788
               5.77803    0.26124609704061
              1.241774    0.79318462463025
 s    1 1.00
              0.297964                   1

7 0
 s    3 1.00
             38.421634   0.040139739345788
               5.77803    0.26124609704061
              1.241774    0.79318462463025
 s    1 1.00
              0.297964                   1

8 0
 s    3 1.00
             38.421634   0.040139739345788
               5.77803    0.26124609704061
              1.241774    0.79318462463025
 s    1 1.00
              0.297964                   1

[5d]
[7f]
[9g]

[MO]
 Sym= A
 Ene=               0
 Spin= Alpha
 Occup=    1.00000
   1      0.94044199250089
   2      0.33862021444012
   3    -0.0050678401075522
   4     0.020561615559379
   5    -0.00015457607522019
   6    -0.00085293055934962
   7    -0.0050678401075521
   8     0.020561615559379
   9    0.00082445617657865
  10    -0.0025805882941395
  11    -4.9119491761209e-05
  12    0.00030601620658131
  13    -1.8310562130757e-05
  14    6.0958128984188e-06
  15    -4.9119491761141e-05
  16    0.00030601620658137
 Sym= A
 Ene=               1
 Spin= Alpha
 Occup=    1.00000
   1      0.33862021444012
   2      0.91452734330275
   3     0.020553806399167
   4      0.15336578473644
   5    -0.00086160283682741
   6     0.023896451629416
   7     0.020553806399167
   8      0.15336578473644
   9    -0.0018235384721006
  10     0.022559936572789
  11    0.00026424466739318
  12    -0.0015523997727436
  13    6.0958128977846e-06
  14    0.00015679633162034
  15    0.00026424466739316
  16    -0.0015523997727436
 Sym= A
 Ene=               2
 Spin= Alpha
 Occup=    1.00000
   1    -0.0050678401075522
   2     0.020553806399167
   3      0.94042076379782
   4      0.33867417129627
   5    -0.0050809643846262
   6     0.020594032533712
   7    -0.00015482107304116
   8     -0.00085688310187
   9    0.00067918947338443
  10    -0.0018559106982631
  11    0.00084494222575387
  12    -0.0022370182643925
  13    -4.9119491761148e-05
  14    0.00026424466739399
  15    -5.4101758856986e-05
  16    0.00025122631721251
 Sym= A
 Ene=               3
 Spin= Alpha
 Occup=    1.00000
   1     0.020561615559379
   2      0.15336578473644
   3      0.33867417129627
   4      0.91433315728216
   5     0.020582094121527
   6       0.1532551803829
   7    -0.00085688310186921
   8     0.023894144581654
   9    -0.0015722680003003
  10     0.018362955309156
  11    -0.0022370182643927
  12     0.022796127255812
  13    0.00030601620658138
  14    -0.0015523997727426
  15    0.00025122631721295
  16    -0.0012236804567489
 Sym= A
 Ene=               4
 Spin= Alpha
 Occup=    1.00000
   1    -0.00015457607522019
   2    -0.00086160283682738
   3    -0.0050809643846263
   4     0.020582094121527
   5      0.94038959670215
   6       0.3387563994141
   7    -0.0050809643846266
   8     0.020582094121527
   9    0.00054425893517929
  10    -0.0013025105710247
  11    0.0006791894733849
  12    -0.0015722680003002
  13    0.00082445617657837
  14    -0.0018235384721004
  15    0.00067918947338469
  16      -0.0015722680003
 Sym= A
 Ene=               5
 Spin= Alpha
 Occup=    1.00000
   1    -0.00085293055934974
   2     0.023896451629416
   3     0.020594032533712
   4       0.1532551803829
   5       0.3387563994141
   6      0.91401815632045
   7     0.020594032533713
   8       0.1532551803829
   9    -0.0013025105710248
  10     0.014900440558573
  11    -0.001855910698263
  12     0.018362955309157
  13    -0.0025805882941392
  14      0.02255993657279
  15    -0.0018559106982629
  16     0.018362955309157
 Sym= A
 Ene=               6
 Spin= Alpha
 Occup=    1.00000
   1    -0.0050678401075521
   2     0.020553806399167
   3    -0.00015482107304105
   4    -0.00085688310186943
   5    -0.0050809643846264
   6     0.020594032533713
   7      0.94042076379782
   8      0.33867417129627
   9    0.00067918947338513
  10    -0.0018559106982628
  11    -5.4101758857106e-05
  12    0.00025122631721286
  13    -4.9119491761387e-05
  14    0.00026424466739391
  15    0.00084494222575331
  16    -0.0022370182643927
 Sym= A
 Ene=               7
 Spin= Alpha
 Occup=    1.00000
   1     0.020561615559379
   2      0.15336578473644
   3    -0.00085688310186994
   4     0.023894144581654
   5     0.020582094121527
   6       0.1532551803829
   7      0.33867417129627
   8      0.91433315728216
   9    -0.0015722680002996
  10     0.018362955309157
  11     0.000251226317213
  12    -0.0012236804567486
  13    0.00030601620658118
  14    -0.0015523997727429
  15    -0.0022370182643929
  16     0.022796127255812
 Sym= A
 Ene=               8
 Spin= Alpha
 Occup=    0.00000
   1    0.0008244561765787
   2    -0.0018235384721005
   3    0.00067918947338425
   4    -0.0015722680003003
   5    0.00054425893517926
   6    -0.0013025105710249
   7    0.00067918947338519
   8    -0.0015722680002994
   9      0.94038959670215
  10       0.3387563994141
  11    -0.0050809643846264
  12     0.020582094121527
  13    -0.00015457607521922
  14    -0.00086160283682796
  15    -0.0050809643846258
  16     0.020582094121527
 Sym= A
 Ene=               9
 Spin= Alpha
 Occup=    0.00000
   1    -0.0025805882941397
   2     0.022559936572789
   3    -0.001855910698263
   4     0.018362955309157
   5    -0.0013025105710246
   6     0.014900440558573
   7    -0.001855910698263
   8     0.018362955309156
   9       0.3387563994141
  10      0.91401815632045
  11     0.020594032533713
  12       0.1532551803829
  13    -0.00085293055935046
  14     0.023896451629416
  15     0.020594032533712
  16       0.1532551803829
 Sym= A
 Ene=              10
 Spin= Alpha
 Occup=    0.00000
   1    -4.9119491761221e-05
   2    0.0002642446673932
   3    0.00084494222575372
   4    -0.0022370182643927
   5    0.0006791894733849
   6    -0.001855910698263
   7    -5.410175885718e-05
   8    0.00025122631721302
   9    -0.005080964384626
  10     0.020594032533713
  11      0.94042076379782
  12      0.33867417129627
  13    -0.0050678401075522
  14     0.020553806399167
  15    -0.00015482107304014
  16    -0.00085688310186914
 Sym= A
 Ene=              11
 Spin= Alpha
 Occup=    0.00000
   1    0.00030601620658118
   2    -0.0015523997727436
   3    -0.0022370182643925
   4     0.022796127255812
   5    -0.0015722680003002
   6     0.018362955309157
   7    0.00025122631721294
   8    -0.0012236804567485
   9     0.020582094121527
  10       0.1532551803829
  11      0.33867417129627
  12      0.91433315728216
  13     0.020561615559379
  14      0.15336578473644
  15    -0.00085688310186912
  16     0.023894144581656
 Sym= A
 Ene=              12
 Spin= Alpha
 Occup=    0.00000
   1    -1.8310562130875e-05
   2    6.0958128978567e-06
   3    -4.9119491761251e-05
   4    0.00030601620658141
   5    0.00082445617657822
   6    -0.0025805882941392
   7    -4.9119491761441e-05
   8    0.00030601620658118
   9    -0.00015457607521926
  10    -0.00085293055935046
  11    -0.0050678401075519
  12     0.020561615559379
  13      0.94044199250089
  14      0.33862021444012
  15    -0.0050678401075525
  16     0.020561615559379
 Sym= A
 Ene=              13
 Spin= Alpha
 Occup=    0.00000
   1    6.0958128983871e-06
   2    0.00015679633162025
   3    0.00026424466739385
   4    -0.0015523997727427
   5    -0.0018235384721002
   6      0.02255993657279
   7    0.00026424466739395
   8    -0.0015523997727428
   9    -0.00086160283682803
  10     0.023896451629416
  11     0.020553806399166
  12      0.15336578473644
  13      0.33862021444012
  14      0.91452734330275
  15     0.020553806399167
  16      0.15336578473644
 Sym= A
 Ene=              14
 Spin= Alpha
 Occup=    0.00000
   1    -4.9119491761153e-05
   2    0.00026424466739321
   3    -5.4101758857124e-05
   4    0.00025122631721294
   5    0.00067918947338473
   6    -0.0018559106982629
   7    0.00084494222575327
   8    -0.002237018264393
   9    -0.005080964384626
  10     0.020594032533712
  11    -0.00015482107304025
  12    -0.00085688310186901
  13    -0.0050678401075525
  14     0.020553806399167
  15      0.94042076379782
  16      0.33867417129627
 Sym= A
 Ene=              15
 Spin= Alpha
 Occup=    0.00000
   1    0.00030601620658126
   2    -0.0015523997727435
   3    0.00025122631721266
   4    -0.001223680456749
   5      -0.0015722680003
   6     0.018362955309157
   7    -0.0022370182643926
   8     0.022796127255812
   9     0.020582094121527
  10       0.1532551803829
  11    -0.00085688310186916
  12     0.023894144581656
  13     0.020561615559379
  14      0.15336578473644
  15      0.33867417129627
  16      0.91433315728216
