[Molden Format]
made by pyscf v[2.2.1]
[Atoms] (AU)
Fe   1   26     3.17068844873907     0.00098706064664     0.12237737881307
O   2   8     0.00000000000000     0.00000000000000    -0.89004350580623
Fe   3   26    -3.17068844873907    -0.00098706064664     0.12237737881307
Cl   4   17     3.53383895113107    -2.07485195383062     3.76228752659000
Cl   5   17     5.54152580550813    -1.85590924879884    -2.78672786652360
Cl   6   17     4.48169216485503     3.92976278472880    -0.95330240907949
Cl   7   17    -3.53383895113107     2.07485195383062     3.76228752659000
Cl   8   17    -5.54152580550813     1.85590924879884    -2.78672786652360
Cl   9   17    -4.48169216485503    -3.92976278472880    -0.95330240907949
[GTO]
1 0
 s    6 1.00
          60923.640643  0.0017552243692958
          9147.8893982   0.013449023284001
          2081.3505927   0.066678874640978
          587.55977067    0.23176348548844
           191.0904399    0.46945550248188
          65.732730112     0.3596824938678
 s    3 1.00
          127.25891928   -0.10723431835929
           14.83091301    0.62971616328466
          6.0653307408    0.44472317896179
 s    3 1.00
           10.44994371   -0.21694289195548
          1.7245228003    0.69457867408393
         0.71772177325    0.43298308896347
 s    1 1.00
        0.091449828308                   1
 s    1 1.00
        0.033706691021                   1
 p    5 1.00
          773.43750995  0.0091440529992506
          182.15149714   0.067887577136571
          57.547272758    0.26167978878504
          20.614988935    0.51088040113251
           7.634855789    0.33235475570224
 p    3 1.00
           3.871932799    0.33193859098144
          1.4924724132     0.5553666555499
         0.56061284958    0.23106034201617
 p    1 1.00
              0.134915                   1
 d    4 1.00
          38.968133419   0.033335938558743
          10.800067078    0.17766212505983
          3.6136457999      0.441281781625
          1.2129967888    0.57089200490673
 d    1 1.00
          0.3652439317                   1
 f    1 1.00
                 1.598                   1

2 0
 s    5 1.00
          2266.1767785  -0.0053893503921743
          340.87010191   -0.04023472138896
          77.363135167   -0.18008184205526
           21.47964494   -0.46828857657651
          6.6589433124   -0.44692617160187
 s    1 1.00
         0.80975975668                   1
 s    1 1.00
         0.25530772234                   1
 p    3 1.00
          17.721504317   0.062630248763161
           3.863550544    0.33331138482352
          1.0480920883    0.74148638308122
 p    1 1.00
         0.27641544411                   1
 d    1 1.00
                   1.2                   1

3 0
 s    6 1.00
          60923.640643  0.0017552243692958
          9147.8893982   0.013449023284001
          2081.3505927   0.066678874640978
          587.55977067    0.23176348548844
           191.0904399    0.46945550248188
          65.732730112     0.3596824938678
 s    3 1.00
          127.25891928   -0.10723431835929
           14.83091301    0.62971616328466
          6.0653307408    0.44472317896179
 s    3 1.00
           10.44994371   -0.21694289195548
          1.7245228003    0.69457867408393
         0.71772177325    0.43298308896347
 s    1 1.00
        0.091449828308                   1
 s    1 1.00
        0.033706691021                   1
 p    5 1.00
          773.43750995  0.0091440529992506
          182.15149714   0.067887577136571
          57.547272758    0.26167978878504
          20.614988935    0.51088040113251
           7.634855789    0.33235475570224
 p    3 1.00
           3.871932799    0.33193859098144
          1.4924724132     0.5553666555499
         0.56061284958    0.23106034201617
 p    1 1.00
              0.134915                   1
 d    4 1.00
          38.968133419   0.033335938558743
          10.800067078    0.17766212505983
          3.6136457999      0.441281781625
          1.2129967888    0.57089200490673
 d    1 1.00
          0.3652439317                   1
 f    1 1.00
                 1.598                   1

4 0
 s    5 1.00
          10449.827566  0.0054265953789407
          1571.7365221   0.040626378128836
          357.12065523    0.18359747852877
          100.25185935    0.47438948768198
          30.812727554    0.43735181104122
 s    3 1.00
          51.923789434  -0.092754154848099
          5.7045760975    0.56380825544207
          2.3508376809    0.50367044629712
 s    1 1.00
         0.44605124672                   1
 s    1 1.00
          0.1684885619                   1
 p    5 1.00
          307.66790569  -0.0088797025588865
          72.102015515  -0.064284071721237
          22.532680262   -0.24288739736006
          7.8991765444   -0.48340836369878
          2.8767268321   -0.38952563875509
 p    1 1.00
         0.77459363955                   1
 p    1 1.00
         0.21037699698                   1
 d    1 1.00
                  0.65                   1

5 0
 s    5 1.00
          10449.827566  0.0054265953789407
          1571.7365221   0.040626378128836
          357.12065523    0.18359747852877
          100.25185935    0.47438948768198
          30.812727554    0.43735181104122
 s    3 1.00
          51.923789434  -0.092754154848099
          5.7045760975    0.56380825544207
          2.3508376809    0.50367044629712
 s    1 1.00
         0.44605124672                   1
 s    1 1.00
          0.1684885619                   1
 p    5 1.00
          307.66790569  -0.0088797025588865
          72.102015515  -0.064284071721237
          22.532680262   -0.24288739736006
          7.8991765444   -0.48340836369878
          2.8767268321   -0.38952563875509
 p    1 1.00
         0.77459363955                   1
 p    1 1.00
         0.21037699698                   1
 d    1 1.00
                  0.65                   1

6 0
 s    5 1.00
          10449.827566  0.0054265953789407
          1571.7365221   0.040626378128836
          357.12065523    0.18359747852877
          100.25185935    0.47438948768198
          30.812727554    0.43735181104122
 s    3 1.00
          51.923789434  -0.092754154848099
          5.7045760975    0.56380825544207
          2.3508376809    0.50367044629712
 s    1 1.00
         0.44605124672                   1
 s    1 1.00
          0.1684885619                   1
 p    5 1.00
          307.66790569  -0.0088797025588865
          72.102015515  -0.064284071721237
          22.532680262   -0.24288739736006
          7.8991765444   -0.48340836369878
          2.8767268321   -0.38952563875509
 p    1 1.00
         0.77459363955                   1
 p    1 1.00
         0.21037699698                   1
 d    1 1.00
                  0.65                   1

7 0
 s    5 1.00
          10449.827566  0.0054265953789407
          1571.7365221   0.040626378128836
          357.12065523    0.18359747852877
          100.25185935    0.47438948768198
          30.812727554    0.43735181104122
 s    3 1.00
          51.923789434  -0.092754154848099
          5.7045760975    0.56380825544207
          2.3508376809    0.50367044629712
 s    1 1.00
         0.44605124672                   1
 s    1 1.00
          0.1684885619                   1
 p    5 1.00
          307.66790569  -0.0088797025588865
          72.102015515  -0.064284071721237
          22.532680262   -0.24288739736006
          7.8991765444   -0.48340836369878
          2.8767268321   -0.38952563875509
 p    1 1.00
         0.77459363955                   1
 p    1 1.00
         0.21037699698                   1
 d    1 1.00
                  0.65                   1

8 0
 s    5 1.00
          10449.827566  0.0054265953789407
          1571.7365221   0.040626378128836
          357.12065523    0.18359747852877
          100.25185935    0.47438948768198
          30.812727554    0.43735181104122
 s    3 1.00
          51.923789434  -0.092754154848099
          5.7045760975    0.56380825544207
          2.3508376809    0.50367044629712
 s    1 1.00
         0.44605124672                   1
 s    1 1.00
          0.1684885619                   1
 p    5 1.00
          307.66790569  -0.0088797025588865
          72.102015515  -0.064284071721237
          22.532680262   -0.24288739736006
          7.8991765444   -0.48340836369878
          2.8767268321   -0.38952563875509
 p    1 1.00
         0.77459363955                   1
 p    1 1.00
         0.21037699698                   1
 d    1 1.00
                  0.65                   1

9 0
 s    5 1.00
          10449.827566  0.0054265953789407
          1571.7365221   0.040626378128836
          357.12065523    0.18359747852877
          100.25185935    0.47438948768198
          30.812727554    0.43735181104122
 s    3 1.00
          51.923789434  -0.092754154848099
          5.7045760975    0.56380825544207
          2.3508376809    0.50367044629712
 s    1 1.00
         0.44605124672                   1
 s    1 1.00
          0.1684885619                   1
 p    5 1.00
          307.66790569  -0.0088797025588865
          72.102015515  -0.064284071721237
          22.532680262   -0.24288739736006
          7.8991765444   -0.48340836369878
          2.8767268321   -0.38952563875509
 p    1 1.00
         0.77459363955                   1
 p    1 1.00
         0.21037699698                   1
 d    1 1.00
                  0.65                   1

[5d]
[7f]
[9g]

[MO]
 Sym= A
 Ene=               0
 Spin= Alpha
 Occup=    1.00000
   1    0.0023629287378356
   2    -0.0066195135034129
   3     0.033385694402564
   4    -0.0094140773361107
   5    -0.0024019662407224
   6    0.0064453911806177
   7    -0.018277622309662
   8    -0.019503548776014
   9    -0.020604739329912
  10     0.056513346946606
  11      0.06035776235084
  12     0.028930616444699
  13    -0.050604880054303
  14    -0.054766633458647
  15     0.020269503760305
  16    -0.046641992888864
  17     0.083516359869339
  18     0.047626922920223
  19    -0.051854774563838
  20     0.012195908720999
  21    -0.031758629893296
  22      0.05472283852192
  23     0.030534128929882
  24    -0.034894145108373
  25    0.00010234089356791
  26    0.00098409529524165
  27    0.00059517905067892
  28    -0.00047350819421386
  29    0.0022281161114386
  30    0.0007893855302182
  31    -0.00051472496264261
  32    8.5514656110521e-17
  33    1.5916958243691e-16
  34    1.3464330797987e-16
  35    -0.0022223870559953
  36    -0.012996114881204
  37    -4.7421234525442e-17
  38    0.00044764445204748
  39    -0.004066371137601
  40    -2.9387273170868e-17
  41    -2.1213602754815e-18
  42    -0.000697236861599
  43    0.00045459126533674
  44    4.0413811564375e-18
  45    -2.124709407587e-18
  46    -0.0023629287378355
  47    0.0066195135034129
  48    -0.033385694402564
  49    0.0094140773361105
  50    0.0024019662407224
  51    0.0064453911806177
  52    -0.018277622309662
  53     0.019503548776014
  54    -0.020604739329912
  55     0.056513346946605
  56     -0.06035776235084
  57     0.028930616444698
  58    -0.050604880054302
  59     0.054766633458647
  60    -0.020269503760305
  61    -0.046641992888864
  62     0.083516359869339
  63    -0.047626922920222
  64     0.051854774563838
  65    -0.012195908720999
  66    -0.031758629893296
  67      0.05472283852192
  68    -0.030534128929882
  69     0.034894145108372
  70    -0.00010234089356791
  71    0.00098409529524164
  72    0.00059517905067892
  73    0.00047350819421385
  74    -0.0022281161114386
  75    0.0007893855302182
  76    -0.00051472496264261
  77    -0.0035903503174501
  78     0.022111092755546
  79    -0.026840186932938
  80    -0.0045931856203584
  81    0.00032250442462899
  82    0.0082828784446971
  83     0.070347105060954
  84    0.00041073384682498
  85     0.014502122855684
  86      0.11779642222576
  87    -0.0018372311074183
  88     0.031504435318929
  89      0.17121728197032
  90    -0.006603336468363
  91    -0.0011341700615393
  92    0.0045865562388918
  93    0.00057444718725727
  94    -0.0002002218611809
  95     0.009740418068923
  96     -0.06195040992916
  97     0.089749960019881
  98     0.025375163437754
  99     -0.06654744772074
 100     0.062135191077356
 101     0.092628317147044
 102     -0.11311804995526
 103       0.1055824928039
 104      0.15678472097791
 105     -0.15744567727615
 106      0.15227545472179
 107      0.22444801724237
 108    0.0065650097638074
 109     -0.01230592733082
 110    0.0097376815120077
 111    0.0037479282261707
 112    -0.0066628099075639
 113    -0.0059345828659318
 114     0.036989057668691
 115    -0.046587176488144
 116    -0.016858992401732
 117     0.026855188649307
 118     0.091487926432161
 119    0.0042794175014606
 120     0.045174857853476
 121      0.15230415301072
 122    0.0077935829042746
 123     0.061048171929539
 124      0.22794412872204
 125     0.018293724983559
 126    0.0044194519407972
 127    0.0012666144929258
 128    0.0065887770762438
 129    0.0069049364399604
 130    -0.0066027970452447
 131    0.0035903503174501
 132    -0.022111092755546
 133     0.026840186932938
 134    0.0045931856203585
 135    0.00032250442462896
 136    0.0082828784446971
 137    -0.070347105060953
 138    0.00041073384682491
 139     0.014502122855684
 140     -0.11779642222576
 141    -0.0018372311074184
 142     0.031504435318929
 143     -0.17121728197032
 144     0.006603336468363
 145    -0.0011341700615393
 146    0.0045865562388917
 147    -0.00057444718725727
 148    0.0002002218611809
 149    -0.009740418068923
 150     0.061950409929159
 151     -0.08974996001988
 152    -0.025375163437754
 153    -0.066547447720739
 154     0.062135191077355
 155    -0.092628317147044
 156     -0.11311804995526
 157       0.1055824928039
 158     -0.15678472097791
 159     -0.15744567727615
 160      0.15227545472179
 161     -0.22444801724237
 162    -0.0065650097638074
 163    -0.012305927330819
 164    0.0097376815120077
 165    -0.0037479282261707
 166    0.0066628099075639
 167    0.0059345828659318
 168    -0.036989057668691
 169     0.046587176488144
 170     0.016858992401732
 171     0.026855188649307
 172     0.091487926432161
 173    -0.0042794175014606
 174     0.045174857853476
 175      0.15230415301072
 176    -0.0077935829042747
 177     0.061048171929539
 178      0.22794412872204
 179    -0.018293724983559
 180    -0.0044194519407971
 181    0.0012666144929258
 182    0.0065887770762438
 183    -0.0069049364399604
 184    0.0066027970452447
 Sym= A
 Ene=               1
 Spin= Alpha
 Occup=    1.00000
   1    0.0018789969637575
   2    -0.0051061570757174
   3     0.027334035975068
   4    -0.011791963408608
   5    0.0063216682602425
   6    0.0031063590099367
   7    -0.020053357943916
   8    -0.018845477784111
   9    -0.010785845633792
  10     0.061872000031734
  11      0.05833453042316
  12     0.018825889443415
  13    -0.056698963413953
  14    -0.052531655597645
  15     0.025393992283973
  16    -0.040196578225424
  17     0.081069787090792
  18     0.048842342116972
  19    -0.054245300553093
  20     0.015475662474687
  21    -0.026811137045369
  22     0.052559068674883
  23     0.033000348166987
  24    -0.036370881442959
  25    0.00029679253012183
  26    0.0010384921083722
  27    0.00056629604255837
  28    -0.00074770596777205
  29    0.0022104566409891
  30    0.0007037207531487
  31    -0.00042761416710167
  32     0.017080519963833
  33     0.041097785382447
  34      0.03320424063885
  35    -1.6756057576954e-17
  36    2.2198189053859e-17
  37    -0.018452590690219
  38    -1.6760631513188e-17
  39    1.1998117590781e-17
  40    -0.010070447700291
  41    -0.00067182346606902
  42    8.8758323922277e-19
  43    -1.1775103904833e-18
  44    0.0013535609284411
  45    -0.0011492255495239
  46    0.0018789969637575
  47    -0.0051061570757174
  48     0.027334035975068
  49    -0.011791963408608
  50    0.0063216682602425
  51    -0.0031063590099366
  52     0.020053357943916
  53     -0.01884547778411
  54     0.010785845633792
  55    -0.061872000031734
  56      0.05833453042316
  57    -0.018825889443415
  58     0.056698963413953
  59    -0.052531655597645
  60     0.025393992283973
  61     0.040196578225424
  62    -0.081069787090792
  63     0.048842342116972
  64    -0.054245300553093
  65     0.015475662474687
  66     0.026811137045369
  67    -0.052559068674883
  68     0.033000348166987
  69    -0.036370881442959
  70    0.00029679253012183
  71    -0.0010384921083722
  72    -0.00056629604255837
  73    -0.00074770596777205
  74    0.0022104566409891
  75    -0.0007037207531487
  76    0.00042761416710167
  77    -0.0032571404926919
  78      0.02008145875752
  79    -0.024339145470257
  80    -0.006274688187629
  81    0.0013469271721945
  82     0.013350391382072
  83     0.066849551859586
  84    0.0023545539677158
  85     0.022792048781575
  86      0.11187888013052
  87    0.00018605539781136
  88      0.04445019992446
  89      0.16440976882402
  90    -0.006244292890285
  91    -0.0014991578579884
  92    0.0039252215225748
  93    4.2357417615154e-06
  94    -5.1372517689043e-05
  95     0.009526359789081
  96      -0.0605678181768
  97     0.087856150946379
  98     0.022883192691658
  99    -0.066783835658734
 100      0.06244341696601
 101     0.088725372923158
 102     -0.11341610210078
 103       0.1058101028129
 104      0.14998999270122
 105     -0.15794498767643
 106      0.15465290711779
 107      0.21524234686451
 108    0.0063060119108528
 109    -0.012161447935656
 110    0.0095083910511654
 111    0.0038906475557995
 112    -0.0067155802635058
 113    -0.0063493859721724
 114     0.039624854584893
 115    -0.050199945313326
 116    -0.019114386060336
 117     0.023909792662739
 118     0.097144498111677
 119    -0.00015742495038013
 120     0.040150670467081
 121      0.16226116758444
 122    0.00034959742740936
 123     0.053655423123842
 124      0.24000759194907
 125    0.0070541339272313
 126    0.0044953403435325
 127     0.001343068428593
 128     0.007204705945772
 129    0.0074370783396577
 130    -0.0065527286653153
 131    -0.003257140492692
 132      0.02008145875752
 133    -0.024339145470257
 134    -0.006274688187629
 135    -0.0013469271721946
 136    -0.013350391382072
 137     0.066849551859586
 138    -0.0023545539677159
 139    -0.022792048781575
 140      0.11187888013052
 141    -0.00018605539781148
 142     -0.04445019992446
 143      0.16440976882402
 144    -0.006244292890285
 145    0.0014991578579884
 146    -0.0039252215225748
 147    4.2357417615227e-06
 148    -5.1372517689041e-05
 149     0.009526359789081
 150    -0.060567818176801
 151     0.087856150946379
 152     0.022883192691658
 153     0.066783835658734
 154     -0.06244341696601
 155     0.088725372923159
 156      0.11341610210078
 157      -0.1058101028129
 158      0.14998999270122
 159      0.15794498767643
 160     -0.15465290711779
 161      0.21524234686451
 162    0.0063060119108529
 163     0.012161447935656
 164    -0.0095083910511655
 165    0.0038906475557995
 166    -0.0067155802635059
 167    -0.0063493859721724
 168     0.039624854584893
 169    -0.050199945313326
 170    -0.019114386060336
 171    -0.023909792662739
 172    -0.097144498111678
 173    -0.00015742495038004
 174    -0.040150670467081
 175     -0.16226116758444
 176    0.00034959742740952
 177    -0.053655423123843
 178     -0.24000759194907
 179    0.0070541339272316
 180    0.0044953403435325
 181    -0.001343068428593
 182    -0.007204705945772
 183    0.0074370783396577
 184    -0.0065527286653154
 Sym= A
 Ene=               2
 Spin= Alpha
 Occup=    1.00000
   1    0.0031372966555787
   2    -0.0090686077150995
   3     0.042982627753453
   4    -0.0092611846390383
   5     0.011821335225704
   6    0.0039721663291326
   7     0.017458420748605
   8    -0.016833747552591
   9     -0.01271314822971
  10    -0.054967352015288
  11     0.053221991210709
  12     0.023728370858121
  13     0.055271474896276
  14    -0.054008124067541
  15    -0.074789991214871
  16    -0.013349982753068
  17      0.03581791431385
  18    -0.024051078554447
  19       0.0189728043547
  20    -0.053602151378606
  21    -0.011019528143739
  22      0.02636111465129
  23    -0.017962654488121
  24     0.012377672477265
  25    -0.00048209368311918
  26    -0.0011038258946391
  27    0.00085717642375835
  28    0.00089791182542501
  29    0.00057454660741178
  30    -0.0011498275995396
  31    -0.00068596448400921
  32    5.7074138338834e-17
  33    4.3308471907701e-16
  34    2.6045205537455e-16
  35    0.0010366883539909
  36     0.012524346731776
  37    -4.2366398065383e-16
  38     0.002105919718347
  39     0.002093684424834
  40    -9.1306961653311e-17
  41    -3.9432208789228e-17
  42    -0.00019429633687248
  43    0.0007185361054004
  44    6.2131838121253e-18
  45    1.6558601724011e-17
  46    -0.0031372966555785
  47    0.0090686077150992
  48    -0.042982627753451
  49     0.009261184639038
  50    -0.011821335225703
  51    0.0039721663291325
  52     0.017458420748604
  53      0.01683374755259
  54    -0.012713148229709
  55    -0.054967352015285
  56    -0.053221991210706
  57      0.02372837085812
  58     0.055271474896273
  59     0.054008124067537
  60     0.074789991214868
  61    -0.013349982753067
  62     0.035817914313847
  63     0.024051078554446
  64    -0.018972804354699
  65     0.053602151378603
  66    -0.011019528143738
  67     0.026361114651288
  68      0.01796265448812
  69    -0.012377672477264
  70    0.00048209368311916
  71    -0.001103825894639
  72    0.0008571764237583
  73    -0.00089791182542496
  74    -0.00057454660741174
  75    -0.0011498275995395
  76    -0.00068596448400916
  77    -0.0079314911418734
  78     0.049159005081443
  79    -0.059548277938785
  80    -0.019162251130934
  81    0.0017897070725574
  82    -0.093982850052826
  83     0.087632267879547
  84    0.0033010306505859
  85     -0.15684482149865
  86      0.14638014917467
  87    -0.00061640146030732
  88     -0.23333057968045
  89        0.203879414641
  90    -0.0074476892635682
  91    -0.0011339105152053
  92     0.015512348523494
  93    0.0059513297896727
  94    0.00042811821492048
  95    0.0010272564824676
  96    -0.0070009815460797
  97     0.015587695764594
  98    -0.0025745221435897
  99    0.0054314050824331
 100     -0.04358087833368
 101     0.047703704095736
 102    0.0081539202060029
 103    -0.071728867550943
 104     0.081290269992902
 105     0.015363465272745
 106     -0.12201336010419
 107      0.12366642442443
 108    0.0034075903472059
 109    -0.0016735573048529
 110    0.00020407914502606
 111    0.00043267918334902
 112    0.0017226090788212
 113    0.0062546951474882
 114    -0.039786954864342
 115     0.057355157687124
 116      0.01580668080613
 117     -0.01988444503305
 118    -0.071860252457097
 119     0.072039401749949
 120    -0.033612421957663
 121     -0.12216834469116
 122      0.12008772541526
 123    -0.047904109325133
 124     -0.17234291109747
 125      0.18880710264769
 126    -0.0020448654016079
 127    -0.0025929891091065
 128    -0.010894320554105
 129    -0.0069504197846241
 130    0.0049169571172748
 131     0.007931491141873
 132     -0.04915900508144
 133     0.059548277938782
 134     0.019162251130932
 135    0.0017897070725575
 136    -0.093982850052821
 137    -0.087632267879542
 138    0.0033010306505861
 139     -0.15684482149864
 140     -0.14638014917466
 141    -0.00061640146030685
 142     -0.23333057968044
 143     -0.20387941464099
 144    0.0074476892635678
 145    -0.0011339105152052
 146     0.015512348523493
 147    -0.0059513297896724
 148    -0.00042811821492045
 149    -0.0010272564824675
 150    0.0070009815460791
 151    -0.015587695764593
 152    0.0025745221435896
 153    0.0054314050824336
 154    -0.043580878333677
 155    -0.047703704095733
 156    0.0081539202060038
 157    -0.071728867550939
 158    -0.081290269992897
 159     0.015363465272746
 160     -0.12201336010418
 161     -0.12366642442442
 162    -0.0034075903472057
 163    -0.0016735573048527
 164    0.00020407914502602
 165    -0.00043267918334896
 166    -0.0017226090788212
 167    -0.0062546951474878
 168      0.03978695486434
 169    -0.057355157687121
 170    -0.015806680806129
 171    -0.019884445033049
 172    -0.071860252457093
 173    -0.072039401749945
 174    -0.033612421957662
 175     -0.12216834469116
 176     -0.12008772541525
 177    -0.047904109325131
 178     -0.17234291109746
 179     -0.18880710264768
 180    0.0020448654016078
 181    -0.0025929891091064
 182    -0.010894320554104
 183    0.0069504197846237
 184    -0.0049169571172746
 Sym= A
 Ene=               3
 Spin= Alpha
 Occup=    1.00000
   1    0.0021561438009689
   2    -0.0062696954018826
   3     0.029396573796734
   4     0.011498971688283
   5    0.0079144045669401
   6    0.0082876082523619
   7     0.016988902437612
   8    -0.017091205621937
   9     -0.02567277148499
  10    -0.053249601189637
  11     0.054268711456619
  12     0.022399200978332
  13     0.051457261028115
  14    -0.057867528923337
  15    -0.063619681130503
  16    -0.022422217781105
  17     0.040431888969867
  18      -0.0350971916437
  19      0.01940592835412
  20     -0.04628305497399
  21    -0.015780908590386
  22       0.0290051686713
  23    -0.024779068276445
  24     0.013949738100441
  25    -0.00051888536926703
  26    -0.0011736673575375
  27    0.00055751998394444
  28    0.0010871912639806
  29    0.00082127174871891
  30    -0.00084042561320213
  31    -0.00082035155087735
  32    -0.033184812195372
  33    -0.055127925506996
  34     -0.05511602007159
  35    -4.9494509151514e-17
  36    -3.5401381257594e-16
  37    -0.013341011901986
  38    -7.0991884383202e-17
  39    -5.45983440201e-17
  40    -0.0037958011244999
  41    -0.00062121137493355
  42    4.8895231436086e-18
  43    -2.0075356045266e-17
  44    -0.0014129072873057
  45    0.00063298654914696
  46     0.002156143800969
  47    -0.0062696954018831
  48     0.029396573796737
  49     0.011498971688282
  50    0.0079144045669408
  51    -0.008287608252362
  52    -0.016988902437612
  53    -0.017091205621938
  54     0.025672771484991
  55      0.05324960118964
  56     0.054268711456622
  57    -0.022399200978333
  58    -0.051457261028118
  59     -0.05786752892334
  60    -0.063619681130507
  61     0.022422217781106
  62    -0.040431888969869
  63    -0.035097191643702
  64     0.019405928354121
  65    -0.046283054973993
  66     0.015780908590387
  67    -0.029005168671301
  68    -0.024779068276446
  69     0.013949738100442
  70    -0.00051888536926705
  71    0.0011736673575375
  72    -0.00055751998394448
  73    0.0010871912639806
  74    0.00082127174871894
  75    0.0008404256132022
  76    0.00082035155087738
  77    -0.0074279007899729
  78       0.0459536592339
  79    -0.053820503866996
  80    -0.022936573105228
  81    -0.012708928180338
  82       -0.087947423717
  83      0.08538620884028
  84    -0.021654475557035
  85     -0.14649860877117
  86      0.14253811311362
  87    -0.036194409472725
  88     -0.21952943583682
  89      0.20107920621533
  90    -0.0069867651986281
  91    -0.00021751671943908
  92     0.014774871374336
  93    0.0053093730622279
  94    1.0397918092002e-05
  95    0.0022548087296629
  96    -0.014657580522557
  97     0.025652257859314
  98    -0.0012999168701066
  99    -0.021751108069895
 100    -0.038154880312969
 101      0.04868771631318
 102    -0.037514268597616
 103    -0.062798352925195
 104     0.082624175930149
 105    -0.052324089573446
 106     -0.10920261506961
 107      0.12422904281742
 108    0.0030456066008726
 109     -0.00429382498427
 110     0.001280133315547
 111    0.0014211927365444
 112    7.198728903078e-05
 113    0.0064409914993839
 114    -0.040893000398054
 115     0.059023603419147
 116     0.013074228383227
 117    -0.024012568083932
 118    -0.074525058365648
 119     0.073736285376644
 120    -0.040666820380353
 121     -0.12660600117156
 122      0.12288676980418
 123    -0.057387013372636
 124     -0.17679728849288
 125       0.1931361245158
 126    -0.0021838605099155
 127    -0.0027506240943557
 128    -0.011006197568617
 129    -0.0075930339253238
 130    0.0054011426607612
 131    -0.0074279007899733
 132     0.045953659233903
 133       -0.053820503867
 134    -0.022936573105229
 135     0.012708928180338
 136     0.087947423717005
 137     0.085386208840285
 138     0.021654475557035
 139      0.14649860877118
 140      0.14253811311363
 141     0.036194409472725
 142      0.21952943583683
 143      0.20107920621534
 144    -0.0069867651986286
 145    0.00021751671943914
 146    -0.014774871374337
 147    0.0053093730622282
 148    1.0397918092027e-05
 149    0.0022548087296629
 150    -0.014657580522557
 151     0.025652257859315
 152    -0.0012999168701067
 153     0.021751108069894
 154     0.038154880312972
 155     0.048687716313182
 156     0.037514268597615
 157     0.062798352925199
 158     0.082624175930153
 159     0.052324089573445
 160      0.10920261506962
 161      0.12422904281743
 162    0.0030456066008727
 163    0.0042938249842701
 164    -0.001280133315547
 165    0.0014211927365444
 166    7.1987289030879e-05
 167    0.0064409914993844
 168    -0.040893000398056
 169      0.05902360341915
 170     0.013074228383228
 171     0.024012568083933
 172     0.074525058365652
 173     0.073736285376648
 174     0.040666820380355
 175      0.12660600117156
 176      0.12288676980419
 177     0.057387013372638
 178      0.17679728849289
 179      0.19313612451581
 180    -0.0021838605099157
 181    0.0027506240943559
 182     0.011006197568617
 183    -0.0075930339253242
 184    0.0054011426607615
 Sym= A
 Ene=               4
 Spin= Alpha
 Occup=    1.00000
   1      0.00540708815759
   2    -0.013932669910246
   3     0.082379475072431
   4     -0.10367460150868
   5     0.027165758052912