[Molden Format]
made by pyscf v[2.2.1]
[Atoms] (AU)
Fe   1   26     3.17068844873907     0.00098706064664     0.12237737881307
O   2   8     0.00000000000000     0.00000000000000    -0.89004350580623
Fe   3   26    -3.17068844873907    -0.00098706064664     0.12237737881307
Cl   4   17     3.53383895113107    -2.07485195383062     3.76228752659000
Cl   5   17     5.54152580550813    -1.85590924879884    -2.78672786652360
Cl   6   17     4.48169216485503     3.92976278472880    -0.95330240907949
Cl   7   17    -3.53383895113107     2.07485195383062     3.76228752659000
Cl   8   17    -5.54152580550813     1.85590924879884    -2.78672786652360
Cl   9   17    -4.48169216485503    -3.92976278472880    -0.95330240907949
[GTO]
1 0
 s    6 1.00
          60923.640643  0.0017552243692958
          9147.8893982   0.013449023284001
          2081.3505927   0.066678874640978
          587.55977067    0.23176348548844
           191.0904399    0.46945550248188
          65.732730112     0.3596824938678
 s    3 1.00
          127.25891928   -0.10723431835929
           14.83091301    0.62971616328466
          6.0653307408    0.44472317896179
 s    3 1.00
           10.44994371   -0.21694289195548
          1.7245228003    0.69457867408393
         0.71772177325    0.43298308896347
 s    1 1.00
        0.091449828308                   1
 s    1 1.00
        0.033706691021                   1
 p    5 1.00
          773.43750995  0.0091440529992506
          182.15149714   0.067887577136571
          57.547272758    0.26167978878504
          20.614988935    0.51088040113251
           7.634855789    0.33235475570224
 p    3 1.00
           3.871932799    0.33193859098144
          1.4924724132     0.5553666555499
         0.56061284958    0.23106034201617
 p    1 1.00
              0.134915                   1
 d    4 1.00
          38.968133419   0.033335938558743
          10.800067078    0.17766212505983
          3.6136457999      0.441281781625
          1.2129967888    0.57089200490673
 d    1 1.00
          0.3652439317                   1
 f    1 1.00
                 1.598                   1

2 0
 s    5 1.00
          2266.1767785  -0.0053893503921743
          340.87010191   -0.04023472138896
          77.363135167   -0.18008184205526
           21.47964494   -0.46828857657651
          6.6589433124   -0.44692617160187
 s    1 1.00
         0.80975975668                   1
 s    1 1.00
         0.25530772234                   1
 p    3 1.00
          17.721504317   0.062630248763161
           3.863550544    0.33331138482352
          1.0480920883    0.74148638308122
 p    1 1.00
         0.27641544411                   1
 d    1 1.00
                   1.2                   1

3 0
 s    6 1.00
          60923.640643  0.0017552243692958
          9147.8893982   0.013449023284001
          2081.3505927   0.066678874640978
          587.55977067    0.23176348548844
           191.0904399    0.46945550248188
          65.732730112     0.3596824938678
 s    3 1.00
          127.25891928   -0.10723431835929
           14.83091301    0.62971616328466
          6.0653307408    0.44472317896179
 s    3 1.00
           10.44994371   -0.21694289195548
          1.7245228003    0.69457867408393
         0.71772177325    0.43298308896347
 s    1 1.00
        0.091449828308                   1
 s    1 1.00
        0.033706691021                   1
 p    5 1.00
          773.43750995  0.0091440529992506
          182.15149714   0.067887577136571
          57.547272758    0.26167978878504
          20.614988935    0.51088040113251
           7.634855789    0.33235475570224
 p    3 1.00
           3.871932799    0.33193859098144
          1.4924724132     0.5553666555499
         0.56061284958    0.23106034201617
 p    1 1.00
              0.134915                   1
 d    4 1.00
          38.968133419   0.033335938558743
          10.800067078    0.17766212505983
          3.6136457999      0.441281781625
          1.2129967888    0.57089200490673
 d    1 1.00
          0.3652439317                   1
 f    1 1.00
                 1.598                   1

4 0
 s    5 1.00
          10449.827566  0.0054265953789407
          1571.7365221   0.040626378128836
          357.12065523    0.18359747852877
          100.25185935    0.47438948768198
          30.812727554    0.43735181104122
 s    3 1.00
          51.923789434  -0.092754154848099
          5.7045760975    0.56380825544207
          2.3508376809    0.50367044629712
 s    1 1.00
         0.44605124672                   1
 s    1 1.00
          0.1684885619                   1
 p    5 1.00
          307.66790569  -0.0088797025588865
          72.102015515  -0.064284071721237
          22.532680262   -0.24288739736006
          7.8991765444   -0.48340836369878
          2.8767268321   -0.38952563875509
 p    1 1.00
         0.77459363955                   1
 p    1 1.00
         0.21037699698                   1
 d    1 1.00
                  0.65                   1

5 0
 s    5 1.00
          10449.827566  0.0054265953789407
          1571.7365221   0.040626378128836
          357.12065523    0.18359747852877
          100.25185935    0.47438948768198
          30.812727554    0.43735181104122
 s    3 1.00
          51.923789434  -0.092754154848099
          5.7045760975    0.56380825544207
          2.3508376809    0.50367044629712
 s    1 1.00
         0.44605124672                   1
 s    1 1.00
          0.1684885619                   1
 p    5 1.00
          307.66790569  -0.0088797025588865
          72.102015515  -0.064284071721237
          22.532680262   -0.24288739736006
          7.8991765444   -0.48340836369878
          2.8767268321   -0.38952563875509
 p    1 1.00
         0.77459363955                   1
 p    1 1.00
         0.21037699698                   1
 d    1 1.00
                  0.65                   1

6 0
 s    5 1.00
          10449.827566  0.0054265953789407
          1571.7365221   0.040626378128836
          357.12065523    0.18359747852877
          100.25185935    0.47438948768198
          30.812727554    0.43735181104122
 s    3 1.00
          51.923789434  -0.092754154848099
          5.7045760975    0.56380825544207
          2.3508376809    0.50367044629712
 s    1 1.00
         0.44605124672                   1
 s    1 1.00
          0.1684885619                   1
 p    5 1.00
          307.66790569  -0.0088797025588865
          72.102015515  -0.064284071721237
          22.532680262   -0.24288739736006
          7.8991765444   -0.48340836369878
          2.8767268321   -0.38952563875509
 p    1 1.00
         0.77459363955                   1
 p    1 1.00
         0.21037699698                   1
 d    1 1.00
                  0.65                   1

7 0
 s    5 1.00
          10449.827566  0.0054265953789407
          1571.7365221   0.040626378128836
          357.12065523    0.18359747852877
          100.25185935    0.47438948768198
          30.812727554    0.43735181104122
 s    3 1.00
          51.923789434  -0.092754154848099
          5.7045760975    0.56380825544207
          2.3508376809    0.50367044629712
 s    1 1.00
         0.44605124672                   1
 s    1 1.00
          0.1684885619                   1
 p    5 1.00
          307.66790569  -0.0088797025588865
          72.102015515  -0.064284071721237
          22.532680262   -0.24288739736006
          7.8991765444   -0.48340836369878
          2.8767268321   -0.38952563875509
 p    1 1.00
         0.77459363955                   1
 p    1 1.00
         0.21037699698                   1
 d    1 1.00
                  0.65                   1

8 0
 s    5 1.00
          10449.827566  0.0054265953789407
          1571.7365221   0.040626378128836
          357.12065523    0.18359747852877
          100.25185935    0.47438948768198
          30.812727554    0.43735181104122
 s    3 1.00
          51.923789434  -0.092754154848099
          5.7045760975    0.56380825544207
          2.3508376809    0.50367044629712
 s    1 1.00
         0.44605124672                   1
 s    1 1.00
          0.1684885619                   1
 p    5 1.00
          307.66790569  -0.0088797025588865
          72.102015515  -0.064284071721237
          22.532680262   -0.24288739736006
          7.8991765444   -0.48340836369878
          2.8767268321   -0.38952563875509
 p    1 1.00
         0.77459363955                   1
 p    1 1.00
         0.21037699698                   1
 d    1 1.00
                  0.65                   1

9 0
 s    5 1.00
          10449.827566  0.0054265953789407
          1571.7365221   0.040626378128836
          357.12065523    0.18359747852877
          100.25185935    0.47438948768198
          30.812727554    0.43735181104122
 s    3 1.00
          51.923789434  -0.092754154848099
          5.7045760975    0.56380825544207
          2.3508376809    0.50367044629712
 s    1 1.00
         0.44605124672                   1
 s    1 1.00
          0.1684885619                   1
 p    5 1.00
          307.66790569  -0.0088797025588865
          72.102015515  -0.064284071721237
          22.532680262   -0.24288739736006
          7.8991765444   -0.48340836369878
          2.8767268321   -0.38952563875509
 p    1 1.00
         0.77459363955                   1
 p    1 1.00
         0.21037699698                   1
 d    1 1.00
                  0.65                   1

[5d]
[7f]
[9g]

[MO]
 Sym= A
 Ene=               0
 Spin= Alpha
 Occup=    1.00000
   1    0.0016450162112929
   2    -0.0040926820360855
   3     0.025483611487357
   4    0.0038733146657963
   5    -0.019095136760997
   6      -0.0016365913833
   7    -8.4729207723454e-05
   8    -0.00032720172826744
   9    0.0049403539104762
  10    0.00028079312026368
  11    0.00089383731794718
  12     0.017889562660211
  13    -0.0012749898709446
  14    0.0083608631955034
  15    0.0019339447713693
  16    0.0022594098606363
  17    0.00036097641466979
  18    -0.002097348684838
  19    0.00010092079068059
  20     0.001573453549874
  21    -0.0025963479316507
  22    -0.00079578808353256
  23    -0.004135427182708
  24    8.7291141790162e-06
  25    -0.00015680391716148
  26    -0.0002299045538024
  27    -0.0001157051369916
  28    0.00028922071990721
  29    4.2587879302841e-06
  30    0.00044593728064566
  31    -7.0350828176287e-05
  32    -0.055368498408925
  33     -0.16946339860583
  34     -0.13947992622112
  35     0.054576338041672
  36    -0.00088569689131326
  37    -0.018368067705048
  38     0.060981652272227
  39    -0.0021426054614719
  40    -0.021812782375233
  41     0.002223683900085
  42    0.0025952562259339
  43    -8.4416297900446e-05
  44    -0.005835420431954
  45    3.8920912479452e-06
  46    -0.021770861559515
  47     0.057260919095925
  48     -0.32327688421293
  49     -0.27229095308528
  50     0.084273330400915
  51    0.0017250639338803
  52    -0.00092919523458433
  53    0.0025261650366213
  54    -0.0069367131379632
  55    0.0028472979300213
  56    -0.0072323711452392
  57     0.058520443251452
  58    0.0018898049143877
  59    -0.015001641755186
  60    -0.0075450287540027
  61    -0.012031704034602
  62    -0.016803466749596
  63    0.0096403140388145
  64    0.0013480303338717
  65    -0.0094553657037402
  66    -0.014352902086175
  67    -0.011385071426045
  68     0.016491934625819
  69    0.00079613025984195
  70    -0.0021615506474474
  71    0.0014367167632171
  72    -0.002628041388004
  73    0.0014818022821207
  74    -0.00047867468208131
  75    -0.0025445494067691
  76    -0.00093333626661595
  77    0.00026235578961103
  78    -0.0021966209801757
  79    0.0092688746120813
  80    -0.00026048711423299
  81    0.0073833846132847
  82    0.0011086413179747
  83    -0.0015728637003814
  84     0.012591861434635
  85    0.0029859638739584
  86    -0.004444659604744
  87     0.021536975615561
  88    0.0021849983696038
  89    -0.0037248278082942
  90    0.00034108822027019
  91    -0.00071135191786472
  92    -0.00016777087786671
  93    -0.00026066331486892
  94    0.00049563851074098
  95    0.0010046622108155
  96    -0.0069374140378533
  97     0.012969472825797
  98     0.014001082761003
  99     -0.00120451820801
 100    0.0021276657991396
 101    0.0039201941469345
 102    -0.0030261697194007
 103    0.0043910812576573
 104    0.0080258978288871
 105    -0.0054169906126324
 106    0.0070954995011726
 107     0.011608377088844
 108    0.00021686344609865
 109    -0.000859644952522
 110    0.00073369520282607
 111    0.00016338032253885
 112    -0.00064065794006751
 113    0.0007475841702812
 114    -0.0052852997945405
 115     0.011399455049743
 116    0.0097925909215769
 117    0.0023063571422251
 118    -0.0038895291517836
 119    0.0014102277355587
 120    0.0033836868471486
 121    -0.0082521934735451
 122    0.0029792914185336
 123    0.0057524431113142
 124    -0.012664180530184
 125     0.003533057068875
 126    -0.00039234642587304
 127    3.6884236305281e-05
 128    -0.00030721826206086
 129    -0.00079574150354588
 130    0.00030728364748786
 131    -0.013123698526529
 132     0.090511630337246
 133     -0.18165712137858
 134     -0.10497808312064
 135    -0.0054204237209158
 136     0.035204887420183
 137     0.056032425472019
 138    -0.011069329354793
 139     0.071663180250198
 140      0.11657712189368
 141    -0.018518922476035
 142      0.09670646113221
 143      0.15365966899692
 144    -0.010909432983816
 145     0.001681073270896
 146    -0.013572197758018
 147    0.0041640424499601
 148    0.0010697201613637
 149    -0.012840062397097
 150     0.088877425360871
 151     -0.18162575664687
 152     -0.10111276426657
 153     -0.03621411285878
 154     0.023545036261156
 155    -0.043478381977796
 156    -0.075097757629745
 157     0.051683795312755
 158    -0.090998630146551
 159     -0.10439044779508
 160     0.061966828246818
 161     -0.11858753282972
 162    -0.0048796139949824
 163    -0.012081084916121
 164    0.0093313591308677
 165    -0.0014272555627768
 166    0.0072298975882457
 167     -0.01252995872374
 168     0.086473806048689
 169     -0.17392898444357
 170    -0.099352421565488
 171     -0.02043087588184
 172     -0.05609763317672
 173    -0.021990741927979
 174    -0.041615693764017
 175     -0.11737868552486
 176    -0.042337403464455
 177    -0.060364914494711
 178     -0.15263504661649
 179    -0.062321799891483
 180    0.0057795715531176
 181    -0.0024826328499786
 182    -0.0077428308055183
 183     0.011067554646186
 184    -0.0072297591232857
 Sym= A
 Ene=               1
 Spin= Alpha
 Occup=    1.00000
   1    -0.00052574718285166
   2     0.001569961139739
   3    -0.007000276151674
   4    0.0074469133637497
   5    -0.0013408820059342
   6    -0.0024284752523013
   7    0.00052538474188064
   8    0.00083763859105774
   9    0.0077508893046515
  10    -0.0016720505223137
  11    -0.0026746112166341
  12    -0.0067288818571091
  13     0.003076869779069
  14    0.0085391237510554
  15    -0.0012752476237224
  16    -0.00071361451318058
  17    -7.1256961778015e-06
  18    0.0019590585414217
  19    -0.00060759095846327
  20    -0.0014003379904668
  21    -0.0023066272816342
  22    -0.00015476322267841
  23    0.00081310669889205
  24    -0.00085977518250895
  25    -4.9495296782077e-05
  26    0.00039237230054951
  27    1.7782681149579e-05
  28    9.1369602086512e-05
  29    6.2287381418819e-05
  30    -0.00028375448815267
  31    0.00012035643886926
  32    -0.0018812243919999
  33    -0.0050967824898805
  34    -0.0025537362739957
  35    0.0086483864573755
  36     0.014399737334559
  37     0.049584912401247
  38    0.0094574936068497
  39      0.01402145895383
  40     0.048219577465624
  41    0.0002048631690561
  42    0.0012000329439883
  43    -0.00019746568071826
  44    0.00011826104500648
  45    0.00019572921819707
  46    -0.0012624744301199
  47    0.0037551393587926
  48    -0.016795124211703
  49     0.031469241005722
  50    -0.013929159754846
  51    0.00067801989819771
  52    0.0014776969243757
  53    0.0048082400533772
  54    -0.0021473194319021
  55    -0.0046677566308167
  56    -0.014936499479721
  57    0.0023346540059529
  58     0.005744557895258
  59     0.021809710771215
  60     -0.20129517106654
  61     -0.47894349029439
  62     -0.48273038468814
  63     -0.43357080796766
  64     -0.28034089306703
  65    -0.054083637159298
  66     -0.12836789477996
  67     -0.13067659564531
  68     -0.11765350448456
  69    -0.075327869636428
  70    -0.001065844247507
  71    -0.0010670254540586
  72    -0.00098054201325084
  73    0.00025921590584682
  74    0.00029218080058136
  75    0.00088712756818023
  76    0.00057294546750229
  77    -0.00022416267764471
  78    0.0015135706916981
  79    -0.0028146549671672
  80    -0.0014910300546534
  81    0.0015525845512025
  82    -0.00083853258399257
  83    0.00078408711078454
  84    0.0028636664714464
  85    -0.0014347027400525
  86    0.0013731405350166
  87    0.0037564121711688
  88    -0.0032801898889881
  89    0.0030828535321904
  90    -0.00010629936762579
  91    0.00031181266244699
  92    -5.1473369940867e-05
  93    0.00017675522226418
  94    -0.00024837522436162
  95    7.7414905229482e-05
  96    -0.00050917068203445
  97    0.00037031699473101
  98    0.0032623783308187
  99    -0.0010522168374094
 100    -7.6967851531122e-05
 101    -0.00069412193201299
 102    -0.0018311212911178
 103    -0.00018378405390704
 104    -0.001250087960687
 105    -0.0035837885988293
 106    0.00080130671439584
 107    -0.00049861149640648
 108    4.5390890782375e-05
 109    -0.00014082319635228
 110    5.5476550256829e-05
 111    -9.5034400006582e-05
 112    -3.0585928587805e-05
 113    -0.00010070385587302
 114    0.00068137262240721
 115    -0.0014329182470734
 116    0.0002889500282521
 117    0.00075406139497047
 118    0.00040693526168215
 119    -0.00078926538832541
 120     0.001370475568376
 121    0.00074411085746038
 122    -0.0013015297540417
 123    0.0019864325341933
 124    0.00093053526507565
 125    -0.002691733138922
 126    -0.00010614559632266
 127    -0.00013540675860152
 128    -1.2870041136762e-05
 129    0.00010585473386444
 130    0.00017965845961222
 131    0.0013678035584255
 132    -0.0089692200279246
 133     0.011347215919894
 134    0.0065346706052542
 135     0.018071071002524
 136    -0.0080035130446513
 137    -0.010004455761345
 138     0.030642159346652
 139    -0.013808768520056
 140    -0.017432577010385
 141     0.050506291704098
 142    -0.022134070917468
 143    -0.027766976736305
 144     0.000485187655085
 145     0.001964705715172
 146    -0.00045177383655311
 147    -0.00086838258957758
 148    0.0012409574592878
 149    -8.1874417975544e-05
 150    0.00055759288553274
 151    -0.0022451853854334
 152    0.0045303465858863
 153    -0.011791107071827
 154    -0.025701019821946
 155    -0.008004409990474
 156     -0.01990313394412
 157    -0.043317402259199
 158    -0.013350245683208
 159    -0.031869058145126
 160    -0.073903377752361
 161    -0.022203306601232
 162    0.00070917396954094
 163    0.0013556838870264
 164    0.0016571099531017
 165    0.0020452239765562
 166    0.0012718934556296
 167    -0.0002008575332117
 168    0.0013304927193234
 169    -0.0030810232177023
 170    0.0026417318874308
 171    -0.013244289074961
 172    0.0077782359107812
 173    -0.021922872778975
 174    -0.022201994792763
 175     0.013102657677157
 176    -0.036790145236988
 177    -0.037137998769867
 178     0.023095633897249
 179    -0.062105478462237
 180    0.00098988202211577
 181    0.0012773991190253
 182    0.0015530998885748
 183    0.0016691708624293
 184    0.00079496551670522
 Sym= A
 Ene=               2
 Spin= Alpha
 Occup=    1.00000
   1    -0.00051488386678949
   2    0.0015250851956285
   3    -0.0069092981550282
   4    0.0083677278956799
   5    -0.0020154024739248
   6     -0.00217671339217
   7    -0.0022255628418257
   8    0.00050574154036204
   9    0.0069497095630922
  10    0.0070862501130575
  11    -0.001620824337819
  12    -0.0055215115667562
  13    -0.014249605127667
  14    0.0069230989311489
  15    -0.0013746745541474
  16    -0.00013052209251604
  17    0.00042130816661398
  18    0.0014505974652507
  19     0.002172037845585
  20    -0.0012381715548114
  21    -0.001975992129251
  22    0.0012196637726943
  23    0.00051704361606037
  24    0.0049898545264993
  25    -2.0144247768182e-05
  26    0.0003343656951434
  27    0.00014483022917016
  28    0.00011147968088259
  29    -0.00034979232149819
  30    -0.00027010086598321
  31    -0.00066390636762732
  32    -0.0022475313026141
  33    -0.0058798220546512
  34    -0.0028871779012722
  35    0.0092134906474281
  36     -0.07607482811436
  37     0.042438557353626
  38     0.010232396908181
  39    -0.073251892293691
  40     0.041430301992369
  41    0.00063102110873928
  42    0.0012348060622069
  43    -0.0011389830084399
  44    0.00049702379072423
  45    -0.001692910671722
  46    -0.00083342290456685
  47    0.0024797521680688
  48    -0.011079234985417
  49     0.021070785978401
  50    -0.0075544874454115
  51    4.4083534922304e-05
  52    -0.0065214085801306
  53    0.0033023055725039
  54    -0.00011512250578927
  55     0.020054897095352
  56    -0.010088176955896
  57    -0.00092727162541375
  58    -0.028261432745209
  59     0.015721005170246
  60      0.52478932055605
  61     -0.15477636684323
  62     -0.46394355936528
  63      0.13091969094646
  64       0.4863374805183
  65      0.14098167839209
  66     -0.04074091457529
  67     -0.12459804480273
  68      0.03478165337955
  69      0.12900282189584
  70    0.00059363468180941
  71    -0.001349603088344
  72    -0.00055241028456383
  73    0.00067544106556279
  74    0.0017073268108705
  75    -7.8919435582988e-05
  76    -0.0015208093559297
  77    -0.00029241024822821
  78    0.0019351035461758
  79    -0.0025939930889089
  80    -0.005321321634362
  81     0.002430596051133
  82    3.7291192547971e-05
  83    0.0019501618089932
  84    0.0042739426971384
  85    0.00011350757764714
  86     0.003302777504556
  87    0.0065491834916946
  88    -0.0011618850822216
  89     0.008087027377592
  90    -3.6912561723527e-05
  91    0.00054286618864263
  92    6.1547700546658e-05
  93    0.00029642306679708
  94    -9.0980720903932e-05
  95    -9.889550907541e-05
  96    0.00066368637964297
  97    -0.0012810804692689
  98    -9.7312568334688e-05
  99    0.00089671669533316
 100    0.00045666199862909
 101    -0.00078704217930757
 102    0.0016063835670808
 103    0.00064709637628508
 104    -0.0012643295539699
 105    0.0024753977314622
 106    0.0023337956454987
 107    -0.0028358573179838
 108    -0.00017694922681823
 109    -0.0001258791780766
 110    2.1442540770576e-05
 111    0.00012321720365634
 112    2.4108999594097e-05
 113    0.00027012554007612
 114    -0.0017976788199965
 115    0.0026167625596307
 116    0.0045238249331577
 117    -0.0030061173154287
 118    -0.00081786899302368
 119    -0.00082798201335792
 120    -0.0054029751402769
 121    -0.0013606466552892
 122     -0.00149948808322
 123    -0.0077189260507373
 124    -0.0046329498627554
 125    -0.0013589826219967
 126    0.00012663964075488
 127    -0.00021916989331085
 128    -0.00019121917952959
 129    -0.00053504387156447
 130    -0.00021072647962958
 131    7.9002532379537e-05
 132    -0.00051251482283459
 133    0.00010578277573667
 134    0.0010166242598825
 135    -0.0031730810759568
 136     0.022896936393096
 137    -0.013944421308027
 138    -0.0053317672522967
 139      0.03861560558549
 140    -0.023631832696987
 141    -0.0090283694295177
 142     0.065522892525613
 143    -0.039931908714261
 144    -0.0025944406609874
 145    -0.00043611591162272
 146    0.0013270707432309
 147    -0.0014283596301219
 148    -0.00011700361195797
 149    -0.00042605623352902
 150    0.0028453424548534
 151    -0.0053327050586263
 152    0.0036238570593041
 153    -0.016228692977713
 154    0.0098706677742524
 155     0.013859322542901
 156    -0.027545719364996
 157       0.0165745480375
 158     0.023278593684452
 159    -0.043782677854783
 160     0.028271221448009
 161     0.040372769031652
 162    -0.0023956318784869
 163    2.5150475481136e-05
 164    -9.5047285346339e-06
 165    0.00086353106680504
 166    -0.0012544579698323
 167     0.001087589283491
 168    -0.0071239806215128
 169     0.009374032945485
 170    0.0032731515287862
 171     0.015793550308322
 172    0.0090163879674292
 173    -0.0078060697880942
 174     0.026650421605795
 175     0.015469876639982
 176    -0.013070845012419
 177     0.044003681935845
 178     0.024868261225156
 179    -0.022775825825055
 180    0.00094656039863238
 181    -0.00021193455898287
 182    0.0011504978487328
 183    -0.00078569434401729
 184    -0.0011652291483158
 Sym= A
 Ene=               3
 Spin= Alpha
 Occup=    1.00000
   1    -0.00099724033824941
   2    0.0029515374081967
   3     -0.01340058559705
   4     0.014466105710889
   5    -0.0046655903895295
   6    -0.0043688509607927
   7    0.0025493865368776
   8    0.0010423946006424
   9     0.014013367405022
  10    -0.0081151053650599
  11    -0.003344083441994
  12     -0.01326330105787
  13     0.015551065886124
  14     0.013740099813641
  15    -0.0018787849519346
  16    -7.8200152674476e-05
  17    -0.00050362599138621
  18    0.0034024829482153
  19    -0.0022532445933275
  20    -0.002182891638057
  21    -0.0033959813417377
  22    -0.0016094055784986
  23    0.0020288138457048
  24    -0.0052258597161278
  25    -1.681331493155e-05
  26    0.00060519430597031
  27    -6.3329954541519e-05
  28    1.2598630868903e-05
  29    0.00037244518642911
  30    -0.00049413655516967
  31    0.00070224170066856
  32    -0.0049522555905547
  33    -0.012110735836709
  34    -0.0094532742019928
  35     0.024701384690636
  36     0.080574295798602
  37     0.072928725850682
  38     0.027708648065026
  39      0.07872970855301
  40     0.070917844386649
  41    0.00072504458911453
  42    0.0020999571291876
  43    0.0011412673295639
  44    0.0011128000532334
  45    0.0018368762945104
  46    0.00060853358390859
  47    -0.0018142423864882
  48    0.0080868826507055
  49    -0.010043919555997
  50    -0.0019742416687631
  51    -0.002336388762996
  52    -0.0044964614847302
  53    -0.0042158089320823
  54    0.0072438264264819
  55     0.014206161262627
  56     0.013410042414185
  57    -0.0063492231498889
  58    -0.0073195300722941
  59    -0.0058593368129576
  60      0.55573373156621
  61     -0.37269620980353
  62      0.30124322203433
  63      0.11361236064092
  64     -0.46174646384764
  65      0.14551693864816
  66    -0.096016565855296
  67     0.078683804453238
  68     0.031178644811415
  69     -0.11884562694964
  70    0.00018544042875141
  71    -0.0018424290097901
  72    -5.7470488291746e-05
  73    0.0015978291813451
  74    -0.0013404472543296
  75    0.00022278918267709
  76    0.0018834257841878
  77    -0.00017049919607407
  78    0.0011401136925127
  79    -0.001725045104346
  80    -0.0024248573020018
  81    0.00042042230321249
  82    -0.001552138833701
  83    0.00049730744062796
  84    0.00072036308549827
  85    -0.0024571555497773
  86    0.00090432183091748
  87     0.002035212062905
  88    -0.0065318272294701
  89    0.0020248183160948
  90    -4.3134592700706e-05
  91    0.00031011178172973
  92    -0.00012781014117248
  93    5.3133615159596e-05
  94    -0.00031408146525236
  95    0.00018101868868943
  96    -0.0011886126104177
  97    0.00091503143901449
  98    0.0072151148312049
  99    -0.0025471171367143
 100    -0.00054190482385579
 101    -0.00090445372231224
 102    -0.004451309767708
 103    -0.00099375745445081
 104    -0.0017626264133578
 105    -0.0083261905239389
 106    0.00016375101728019
 107    0.0010737438328968
 108    0.00015525851910745
 109    -0.00028851713292122
 110    0.00013359621999471
 111    -0.00018912012939692
 112    -0.0001609699090203
 113    -0.00040050709717476
 114    0.0026828483225548
 115    -0.0046674357854835
 116    -0.0029472414168986
 117    0.0033146510060249
 118    0.0015382442926115
 119    -0.00099051976703222
 120     0.005870675688317
 121    0.0027425884691998
 122    -0.0014937002482365
 123    0.0094797434439815
 124    0.0053205185133965
 125    -0.0046150138687603
 126    -0.00038494983995687
 127    -0.00010768424795489
 128    0.00010945553932271
 129    0.00050855186136764
 130    0.0006395051375735
 131    -0.003684255979096
 132     0.024146621756333
 133    -0.030150272624176
 134    -0.030433161737666
 135     0.010490711919183
 136     0.027802840103749
 137     0.029951513713107
 138     0.017497772633713
 139     0.047315335887023
 140     0.051387892732082
 141     0.029785447533906
 142     0.083035102576504
 143     0.091863781407924
 144    -0.0011947047336017
 145    0.0017922832850717
 146    -4.8774475412801e-05
 147    1.0418917764837e-05
 148    0.00041264209440762
 149    0.00049070854166885
 150    -0.0031845107765467
 151    0.0034601315521407
 152    0.0058604233519158
 153    0.00068600737657465
 154    0.0051535525232481
 155     0.011277395272608
 156    0.0012071274792115
 157    0.0089057773396699
 158     0.019222276808934
 159    0.0027498137924046
 160     0.013263497745558
 161     0.032102202746108
 162    -0.00081715248762569
 163    -0.00044144450007687
 164    -0.00034345162139786
 165    -0.00038528308250465
 166    -0.0015494618898977
 167    0.0028928494300797
 168     -0.01883537216301
 169     0.022654912679875
 170     0.025959841714019
 171    -0.00049587613976799
 172      0.02914086456248
 173     0.021810550069313
 174    -0.0005724360665553
 175      0.04916808717248
 176     0.036474007186011
 177    -2.9470469044461e-05
 178     0.088167415333589
 179     0.063881074225758
 180    -0.00070082708068473
 181    -0.00026002598147668
 182    -0.00014760545359165
 183    -0.0011235027322936