[Molden Format]
made by pyscf v[2.2.1]
[Atoms] (AU)
Fe   1   26     3.17068844873907     0.00098706064664     0.12237737881307
O   2   8     0.00000000000000     0.00000000000000    -0.89004350580623
Fe   3   26    -3.17068844873907    -0.00098706064664     0.12237737881307
Cl   4   17     3.53383895113107    -2.07485195383062     3.76228752659000
Cl   5   17     5.54152580550813    -1.85590924879884    -2.78672786652360
Cl   6   17     4.48169216485503     3.92976278472880    -0.95330240907949
Cl   7   17    -3.53383895113107     2.07485195383062     3.76228752659000
Cl   8   17    -5.54152580550813     1.85590924879884    -2.78672786652360
Cl   9   17    -4.48169216485503    -3.92976278472880    -0.95330240907949
[GTO]
1 0
 s    6 1.00
          60923.640643  0.0017552243692958
          9147.8893982   0.013449023284001
          2081.3505927   0.066678874640978
          587.55977067    0.23176348548844
           191.0904399    0.46945550248188
          65.732730112     0.3596824938678
 s    3 1.00
          127.25891928   -0.10723431835929
           14.83091301    0.62971616328466
          6.0653307408    0.44472317896179
 s    3 1.00
           10.44994371   -0.21694289195548
          1.7245228003    0.69457867408393
         0.71772177325    0.43298308896347
 s    1 1.00
        0.091449828308                   1
 s    1 1.00
        0.033706691021                   1
 p    5 1.00
          773.43750995  0.0091440529992506
          182.15149714   0.067887577136571
          57.547272758    0.26167978878504
          20.614988935    0.51088040113251
           7.634855789    0.33235475570224
 p    3 1.00
           3.871932799    0.33193859098144
          1.4924724132     0.5553666555499
         0.56061284958    0.23106034201617
 p    1 1.00
              0.134915                   1
 d    4 1.00
          38.968133419   0.033335938558743
          10.800067078    0.17766212505983
          3.6136457999      0.441281781625
          1.2129967888    0.57089200490673
 d    1 1.00
          0.3652439317                   1
 f    1 1.00
                 1.598                   1

2 0
 s    5 1.00
          2266.1767785  -0.0053893503921743
          340.87010191   -0.04023472138896
          77.363135167   -0.18008184205526
           21.47964494   -0.46828857657651
          6.6589433124   -0.44692617160187
 s    1 1.00
         0.80975975668                   1
 s    1 1.00
         0.25530772234                   1
 p    3 1.00
          17.721504317   0.062630248763161
           3.863550544    0.33331138482352
          1.0480920883    0.74148638308122
 p    1 1.00
         0.27641544411                   1
 d    1 1.00
                   1.2                   1

3 0
 s    6 1.00
          60923.640643  0.0017552243692958
          9147.8893982   0.013449023284001
          2081.3505927   0.066678874640978
          587.55977067    0.23176348548844
           191.0904399    0.46945550248188
          65.732730112     0.3596824938678
 s    3 1.00
          127.25891928   -0.10723431835929
           14.83091301    0.62971616328466
          6.0653307408    0.44472317896179
 s    3 1.00
           10.44994371   -0.21694289195548
          1.7245228003    0.69457867408393
         0.71772177325    0.43298308896347
 s    1 1.00
        0.091449828308                   1
 s    1 1.00
        0.033706691021                   1
 p    5 1.00
          773.43750995  0.0091440529992506
          182.15149714   0.067887577136571
          57.547272758    0.26167978878504
          20.614988935    0.51088040113251
           7.634855789    0.33235475570224
 p    3 1.00
           3.871932799    0.33193859098144
          1.4924724132     0.5553666555499
         0.56061284958    0.23106034201617
 p    1 1.00
              0.134915                   1
 d    4 1.00
          38.968133419   0.033335938558743
          10.800067078    0.17766212505983
          3.6136457999      0.441281781625
          1.2129967888    0.57089200490673
 d    1 1.00
          0.3652439317                   1
 f    1 1.00
                 1.598                   1

4 0
 s    5 1.00
          10449.827566  0.0054265953789407
          1571.7365221   0.040626378128836
          357.12065523    0.18359747852877
          100.25185935    0.47438948768198
          30.812727554    0.43735181104122
 s    3 1.00
          51.923789434  -0.092754154848099
          5.7045760975    0.56380825544207
          2.3508376809    0.50367044629712
 s    1 1.00
         0.44605124672                   1
 s    1 1.00
          0.1684885619                   1
 p    5 1.00
          307.66790569  -0.0088797025588865
          72.102015515  -0.064284071721237
          22.532680262   -0.24288739736006
          7.8991765444   -0.48340836369878
          2.8767268321   -0.38952563875509
 p    1 1.00
         0.77459363955                   1
 p    1 1.00
         0.21037699698                   1
 d    1 1.00
                  0.65                   1

5 0
 s    5 1.00
          10449.827566  0.0054265953789407
          1571.7365221   0.040626378128836
          357.12065523    0.18359747852877
          100.25185935    0.47438948768198
          30.812727554    0.43735181104122
 s    3 1.00
          51.923789434  -0.092754154848099
          5.7045760975    0.56380825544207
          2.3508376809    0.50367044629712
 s    1 1.00
         0.44605124672                   1
 s    1 1.00
          0.1684885619                   1
 p    5 1.00
          307.66790569  -0.0088797025588865
          72.102015515  -0.064284071721237
          22.532680262   -0.24288739736006
          7.8991765444   -0.48340836369878
          2.8767268321   -0.38952563875509
 p    1 1.00
         0.77459363955                   1
 p    1 1.00
         0.21037699698                   1
 d    1 1.00
                  0.65                   1

6 0
 s    5 1.00
          10449.827566  0.0054265953789407
          1571.7365221   0.040626378128836
          357.12065523    0.18359747852877
          100.25185935    0.47438948768198
          30.812727554    0.43735181104122
 s    3 1.00
          51.923789434  -0.092754154848099
          5.7045760975    0.56380825544207
          2.3508376809    0.50367044629712
 s    1 1.00
         0.44605124672                   1
 s    1 1.00
          0.1684885619                   1
 p    5 1.00
          307.66790569  -0.0088797025588865
          72.102015515  -0.064284071721237
          22.532680262   -0.24288739736006
          7.8991765444   -0.48340836369878
          2.8767268321   -0.38952563875509
 p    1 1.00
         0.77459363955                   1
 p    1 1.00
         0.21037699698                   1
 d    1 1.00
                  0.65                   1

7 0
 s    5 1.00
          10449.827566  0.0054265953789407
          1571.7365221   0.040626378128836
          357.12065523    0.18359747852877
          100.25185935    0.47438948768198
          30.812727554    0.43735181104122
 s    3 1.00
          51.923789434  -0.092754154848099
          5.7045760975    0.56380825544207
          2.3508376809    0.50367044629712
 s    1 1.00
         0.44605124672                   1
 s    1 1.00
          0.1684885619                   1
 p    5 1.00
          307.66790569  -0.0088797025588865
          72.102015515  -0.064284071721237
          22.532680262   -0.24288739736006
          7.8991765444   -0.48340836369878
          2.8767268321   -0.38952563875509
 p    1 1.00
         0.77459363955                   1
 p    1 1.00
         0.21037699698                   1
 d    1 1.00
                  0.65                   1

8 0
 s    5 1.00
          10449.827566  0.0054265953789407
          1571.7365221   0.040626378128836
          357.12065523    0.18359747852877
          100.25185935    0.47438948768198
          30.812727554    0.43735181104122
 s    3 1.00
          51.923789434  -0.092754154848099
          5.7045760975    0.56380825544207
          2.3508376809    0.50367044629712
 s    1 1.00
         0.44605124672                   1
 s    1 1.00
          0.1684885619                   1
 p    5 1.00
          307.66790569  -0.0088797025588865
          72.102015515  -0.064284071721237
          22.532680262   -0.24288739736006
          7.8991765444   -0.48340836369878
          2.8767268321   -0.38952563875509
 p    1 1.00
         0.77459363955                   1
 p    1 1.00
         0.21037699698                   1
 d    1 1.00
                  0.65                   1

9 0
 s    5 1.00
          10449.827566  0.0054265953789407
          1571.7365221   0.040626378128836
          357.12065523    0.18359747852877
          100.25185935    0.47438948768198
          30.812727554    0.43735181104122
 s    3 1.00
          51.923789434  -0.092754154848099
          5.7045760975    0.56380825544207
          2.3508376809    0.50367044629712
 s    1 1.00
         0.44605124672                   1
 s    1 1.00
          0.1684885619                   1
 p    5 1.00
          307.66790569  -0.0088797025588865
          72.102015515  -0.064284071721237
          22.532680262   -0.24288739736006
          7.8991765444   -0.48340836369878
          2.8767268321   -0.38952563875509
 p    1 1.00
         0.77459363955                   1
 p    1 1.00
         0.21037699698                   1
 d    1 1.00
                  0.65                   1

[5d]
[7f]
[9g]

[MO]
 Sym= A
 Ene=               0
 Spin= Alpha
 Occup=    1.00000
   1     0.021770861559514
   2    -0.057260919095925
   3      0.32327688421293
   4      0.27229095308528
   5    -0.084273330400915
   6    0.0017250639338803
   7    -0.00092919523458432
   8    -0.0025261650366213
   9    -0.0069367131379632
  10    0.0028472979300213
  11    0.0072323711452393
  12     0.058520443251452
  13    0.0018898049143877
  14     0.015001641755186
  15    0.0075450287540027
  16    -0.012031704034602
  17    -0.016803466749596
  18    -0.0096403140388144
  19    -0.0013480303338717
  20    0.0094553657037402
  21    -0.014352902086175
  22    -0.011385071426045
  23    -0.016491934625819
  24    -0.00079613025984194
  25    0.0021615506474474
  26    0.0014367167632171
  27    -0.002628041388004
  28    -0.0014818022821207
  29    0.00047867468208131
  30    -0.0025445494067691
  31    -0.00093333626661595
  32     0.055368498408925
  33      0.16946339860583
  34      0.13947992622112
  35     0.054576338041672
  36    -0.00088569689131327
  37     0.018368067705048
  38     0.060981652272227
  39    -0.0021426054614719
  40     0.021812782375233
  41    -0.002223683900085
  42    0.0025952562259339
  43    -8.4416297900446e-05
  44     0.005835420431954
  45    -3.8920912479452e-06
  46    -0.001645016211293
  47    0.0040926820360855
  48    -0.025483611487357
  49    -0.0038733146657962
  50     0.019095136760997
  51    -0.0016365913833001
  52    -8.4729207723454e-05
  53    0.00032720172826745
  54    0.0049403539104763
  55    0.00028079312026367
  56    -0.0008938373179472
  57     0.017889562660211
  58    -0.0012749898709446
  59    -0.0083608631955034
  60    -0.0019339447713693
  61    0.0022594098606364
  62    0.00036097641466994
  63    0.0020973486848379
  64    -0.00010092079068056
  65    -0.001573453549874
  66    -0.0025963479316507
  67    -0.00079578808353251
  68     0.004135427182708
  69    -8.7291141790024e-06
  70    0.00015680391716148
  71    -0.0002299045538024
  72    -0.0001157051369916
  73    -0.00028922071990721
  74    -4.2587879302841e-06
  75    0.00044593728064566
  76    -7.0350828176287e-05
  77     0.013123698526529
  78    -0.090511630337246
  79      0.18165712137858
  80      0.10497808312064
  81    -0.0054204237209157
  82     0.035204887420183
  83    -0.056032425472019
  84    -0.011069329354793
  85     0.071663180250198
  86     -0.11657712189368
  87    -0.018518922476035
  88      0.09670646113221
  89     -0.15365966899692
  90     0.010909432983816
  91     0.001681073270896
  92    -0.013572197758018
  93    -0.0041640424499601
  94    -0.0010697201613637
  95     0.012840062397097
  96    -0.088877425360871
  97      0.18162575664687
  98      0.10111276426657
  99     -0.03621411285878
 100     0.023545036261156
 101     0.043478381977796
 102    -0.075097757629745
 103     0.051683795312755
 104     0.090998630146551
 105     -0.10439044779508
 106     0.061966828246818
 107      0.11858753282972
 108    0.0048796139949824
 109    -0.012081084916121
 110    0.0093313591308677
 111    0.0014272555627768
 112    -0.0072298975882457
 113      0.01252995872374
 114    -0.086473806048689
 115      0.17392898444357
 116     0.099352421565488
 117     -0.02043087588184
 118     -0.05609763317672
 119     0.021990741927979
 120    -0.041615693764017
 121     -0.11737868552486
 122     0.042337403464455
 123    -0.060364914494711
 124     -0.15263504661649
 125     0.062321799891483
 126    -0.0057795715531176
 127    -0.0024826328499786
 128    -0.0077428308055183
 129    -0.011067554646186
 130    0.0072297591232857
 131    -0.0002623557896112
 132    0.0021966209801756
 133    -0.0092688746120812
 134    0.00026048711423303
 135    0.0073833846132848
 136    0.0011086413179747
 137    0.0015728637003813
 138     0.012591861434635
 139    0.0029859638739584
 140    0.0044446596047439
 141     0.021536975615561
 142    0.0021849983696038
 143    0.0037248278082941
 144    -0.00034108822027018
 145    -0.00071135191786472
 146    -0.0001677708778667
 147    0.00026066331486891
 148    -0.00049563851074098
 149    -0.0010046622108155
 150    0.0069374140378534
 151    -0.012969472825798
 152    -0.014001082761003
 153    -0.0012045182080099
 154    0.0021276657991396
 155    -0.0039201941469344
 156    -0.0030261697194006
 157    0.0043910812576572
 158    -0.008025897828887
 159    -0.0054169906126323
 160    0.0070954995011725
 161    -0.011608377088844
 162    -0.00021686344609865
 163    -0.000859644952522
 164    0.00073369520282607
 165    -0.00016338032253885
 166    0.00064065794006751
 167    -0.00074758417028125
 168    0.0052852997945406
 169    -0.011399455049744
 170    -0.009792590921577
 171    0.0023063571422251
 172    -0.0038895291517835
 173    -0.0014102277355587
 174    0.0033836868471487
 175    -0.0082521934735449
 176    -0.0029792914185336
 177    0.0057524431113142
 178    -0.012664180530184
 179    -0.0035330570688749
 180    0.00039234642587304
 181    3.6884236305281e-05
 182    -0.00030721826206086
 183    0.00079574150354588
 184    -0.00030728364748786
 Sym= A
 Ene=               1
 Spin= Alpha
 Occup=    1.00000
   1    0.0012624744301199
   2    -0.0037551393587925
   3     0.016795124211703
   4    -0.031469241005722
   5     0.013929159754846
   6    0.00067801989819783
   7    0.0014776969243756
   8    -0.004808240053377
   9    -0.0021473194319025
  10    -0.0046677566308166
  11      0.01493649947972
  12    0.0023346540059533
  13    0.0057445578952583
  14    -0.021809710771215
  15      0.20129517106653
  16     -0.47894349029439
  17     -0.48273038468812
  18      0.43357080796766
  19      0.28034089306707
  20     0.054083637159297
  21     -0.12836789477996
  22      -0.1306765956453
  23      0.11765350448456
  24     0.075327869636437
  25    0.0010658442475069
  26    -0.0010670254540586
  27    -0.00098054201325084
  28    -0.00025921590584683
  29    -0.00029218080058125
  30    0.00088712756818025
  31    0.00057294546750242
  32    0.0018812243919998
  33    0.0050967824898803
  34    0.0025537362739955
  35    0.0086483864573749
  36     0.014399737334565
  37    -0.049584912401248
  38    0.0094574936068491
  39     0.014021458953836
  40    -0.048219577465624
  41    -0.00020486316905611
  42    0.0012000329439883
  43    -0.00019746568071818
  44    -0.00011826104500649
  45    -0.0001957292181972
  46    0.00052574718285165
  47    -0.001569961139739
  48    0.0070002761516738
  49    -0.0074469133637496
  50    0.0013408820059344
  51    -0.0024284752523012
  52    0.00052538474188082
  53    -0.00083763859105778
  54    0.0077508893046515
  55    -0.0016720505223143
  56    0.0026746112166343
  57    -0.0067288818571091
  58    0.0030768697790701
  59    -0.0085391237510556
  60     0.001275247623723
  61    -0.00071361451318053
  62    -7.125696177713e-06
  63    -0.001959058541422
  64    0.00060759095846403
  65    0.0014003379904669
  66    -0.0023066272816342
  67    -0.00015476322267848
  68    -0.00081310669889217
  69    0.00085977518250946
  70    4.9495296782082e-05
  71    0.00039237230054951
  72    1.778268114957e-05
  73    -9.1369602086516e-05
  74    -6.2287381418844e-05
  75    -0.00028375448815267
  76    0.00012035643886931
  77    -0.0013678035584254
  78    0.0089692200279239
  79    -0.011347215919893
  80    -0.0065346706052532
  81     0.018071071002524
  82    -0.008003513044651
  83     0.010004455761344
  84     0.030642159346652
  85    -0.013808768520056
  86     0.017432577010383
  87     0.050506291704098
  88    -0.022134070917467
  89     0.027766976736301
  90    -0.00048518765508502
  91    0.0019647057151721
  92    -0.00045177383655314
  93    0.00086838258957754
  94    -0.0012409574592878
  95    8.1874417975586e-05
  96    -0.00055759288553302
  97    0.0022451853854337
  98    -0.0045303465858859
  99    -0.011791107071827
 100    -0.025701019821946
 101    0.0080044099904745
 102    -0.019903133944119
 103    -0.043317402259199
 104     0.013350245683209
 105    -0.031869058145126
 106     -0.07390337775236
 107     0.022203306601233
 108    -0.00070917396954096
 109    0.0013556838870264
 110    0.0016571099531017
 111    -0.0020452239765562
 112    -0.0012718934556296
 113    0.00020085753321161
 114    -0.0013304927193228
 115    0.0030810232177016
 116    -0.0026417318874317
 117    -0.013244289074962
 118    0.0077782359107822
 119     0.021922872778974
 120    -0.022201994792764
 121     0.013102657677159
 122     0.036790145236986
 123    -0.037137998769868
 124     0.023095633897253
 125     0.062105478462234
 126    -0.00098988202211572
 127    0.0012773991190254
 128    0.0015530998885748
 129    -0.0016691708624293
 130    -0.00079496551670534
 131    0.0002241626776447
 132    -0.001513570691698
 133    0.0028146549671671
 134    0.0014910300546531
 135    0.0015525845512024
 136    -0.00083853258399259
 137    -0.00078408711078444
 138    0.0028636664714463
 139    -0.0014347027400525
 140    -0.0013731405350165
 141    0.0037564121711686
 142    -0.0032801898889882
 143     -0.00308285353219
 144    0.00010629936762579
 145    0.00031181266244696
 146    -5.1473369940876e-05
 147    -0.00017675522226417
 148    0.00024837522436163
 149    -7.7414905229497e-05
 150    0.00050917068203455
 151    -0.00037031699473115
 152    -0.003262378330819
 153    -0.0010522168374095
 154    -7.6967851531124e-05
 155     0.000694121932013
 156    -0.0018311212911181
 157    -0.00018378405390708
 158     0.001250087960687
 159    -0.0035837885988298
 160    0.00080130671439577
 161    0.00049861149640639
 162    -4.5390890782394e-05
 163    -0.00014082319635228
 164    5.5476550256834e-05
 165     9.50344000066e-05
 166    3.0585928587807e-05
 167    0.00010070385587303
 168    -0.00068137262240731
 169    0.0014329182470736
 170    -0.0002889500282519
 171    0.00075406139497068
 172    0.00040693526168217
 173    0.00078926538832541
 174    0.0013704755683764
 175    0.00074411085746042
 176    0.0013015297540417
 177    0.0019864325341939
 178    0.0009305352650759
 179    0.0026917331389221
 180    0.00010614559632268
 181    -0.00013540675860152
 182    -1.2870041136755e-05
 183    -0.00010585473386447
 184    -0.00017965845961224
 Sym= A
 Ene=               2
 Spin= Alpha
 Occup=    1.00000
   1    -0.0008334229045669
   2     0.002479752168069
   3    -0.011079234985417
   4     0.021070785978402
   5    -0.0075544874454119
   6    -4.4083534922359e-05
   7    0.0065214085801304
   8    0.0033023055725042
   9    0.00011512250578944
  10    -0.020054897095352
  11    -0.010088176955896
  12    0.0009272716254136
  13     0.028261432745208
  14     0.015721005170247
  15      0.52478932055602
  16      0.15477636684323
  17       0.4639435593653
  18      0.13091969094644
  19      0.48633748051831
  20      0.14098167839208
  21     0.040740914575291
  22      0.12459804480274
  23     0.034781653379545
  24      0.12900282189584
  25    0.00059363468180937
  26     0.001349603088344
  27    0.00055241028456385
  28    0.00067544106556275
  29    0.0017073268108706
  30    7.8919435582971e-05
  31    0.0015208093559298
  32    -0.002247531302614
  33    -0.005879822054651
  34    -0.002887177901272
  35    -0.0092134906474278
  36     0.076074828114362
  37     0.042438557353625
  38    -0.010232396908181
  39     0.073251892293694
  40     0.041430301992368
  41    0.00063102110873926
  42    -0.0012348060622069
  43    0.0011389830084399
  44    0.00049702379072419
  45    -0.0016929106717221
  46    -0.00051488386678947
  47    0.0015250851956285
  48    -0.006909298155028
  49    0.0083677278956798
  50    -0.0020154024739246
  51    0.0021767133921699
  52    0.0022255628418258
  53    0.00050574154036203
  54    -0.006949709563092
  55    -0.0070862501130577
  56    -0.0016208243378189
  57     0.005521511566756
  58     0.014249605127667
  59    0.0069230989311487
  60    -0.0013746745541475
  61    0.00013052209251589
  62    -0.00042130816661418
  63    0.0014505974652502
  64    0.0021720378455847
  65    -0.0012381715548114
  66     0.001975992129251
  67    -0.0012196637726944
  68    0.0005170436160602
  69    0.0049898545264993
  70    -2.0144247768181e-05
  71    -0.00033436569514339
  72    -0.00014483022917016
  73    0.00011147968088259
  74    -0.0003497923214982
  75    0.00027010086598321
  76    0.00066390636762734
  77    7.9002532379696e-05
  78    -0.00051251482283563
  79    0.00010578277573796
  80    0.0010166242598837
  81    0.0031730810759565
  82    -0.022896936393095
  83    -0.013944421308028
  84    0.0053317672522963
  85    -0.038615605585487
  86     -0.02363183269699
  87    0.0090283694295171
  88     -0.06552289252561
  89    -0.039931908714265
  90    -0.0025944406609873
  91    0.00043611591162272
  92    -0.0013270707432309
  93    -0.0014283596301219
  94    -0.00011700361195794
  95    -0.00042605623352902
  96    0.0028453424548534
  97    -0.0053327050586263
  98    0.0036238570593042
  99     0.016228692977714
 100    -0.0098706677742513
 101     0.013859322542901
 102     0.027545719364996
 103    -0.016574548037499
 104     0.023278593684451
 105     0.043782677854783
 106    -0.028271221448006
 107      0.04037276903165
 108    -0.0023956318784868
 109    -2.5150475481197e-05
 110    9.5047285345763e-06
 111    0.00086353106680512
 112    -0.0012544579698322
 113    0.0010875892834909
 114    -0.007123980621512
 115     0.009374032945484
 116    0.0032731515287853
 117    -0.015793550308322
 118    -0.0090163879674283
 119    -0.0078060697880956
 120    -0.026650421605794
 121    -0.015469876639981
 122    -0.013070845012421
 123    -0.044003681935844
 124    -0.024868261225153
 125    -0.022775825825059
 126    0.00094656039863243
 127    0.00021193455898283
 128    -0.0011504978487328
 129    -0.0007856943440172
 130    -0.0011652291483158
 131    -0.00029241024822821
 132    0.0019351035461758
 133    -0.0025939930889089
 134    -0.005321321634362
 135    -0.002430596051133
 136    -3.7291192548009e-05
 137    0.0019501618089932
 138    -0.0042739426971385
 139    -0.00011350757764726
 140     0.003302777504556
 141    -0.0065491834916946
 142    0.0011618850822214
 143     0.008087027377592
 144    -3.6912561723526e-05
 145    -0.00054286618864262
 146    -6.154770054666e-05
 147    0.00029642306679708
 148    -9.0980720903929e-05
 149    -9.8895509075415e-05
 150    0.00066368637964299
 151    -0.0012810804692689
 152    -9.7312568334837e-05
 153    -0.00089671669533323
 154    -0.0004566619986291
 155    -0.00078704217930757
 156    -0.0016063835670809
 157    -0.00064709637628513
 158    -0.0012643295539699
 159    -0.0024753977314624
 160    -0.0023337956454988
 161    -0.0028358573179839
 162    -0.00017694922681823
 163    0.00012587917807659
 164    -2.1442540770573e-05
 165    0.00012321720365635
 166    2.4108999594101e-05
 167    0.00027012554007614
 168    -0.0017976788199966
 169    0.0026167625596308
 170    0.0045238249331578
 171    0.0030061173154288
 172    0.00081786899302373
 173    -0.00082798201335792
 174     0.005402975140277
 175    0.0013606466552893
 176     -0.00149948808322
 177    0.0077189260507376
 178    0.0046329498627556
 179    -0.0013589826219967
 180    0.00012663964075489
 181    0.00021916989331085
 182    0.0001912191795296
 183    -0.00053504387156448
 184    -0.0002107264796296
 Sym= A
 Ene=               3
 Spin= Alpha
 Occup=    1.00000
   1    0.00060853358390865
   2    -0.0018142423864884
   3    0.0080868826507062
   4    -0.010043919555998
   5    -0.0019742416687633
   6    0.0023363887629965
   7    0.0044964614847301
   8    -0.0042158089320826
   9    -0.0072438264264837
  10    -0.014206161262627
  11     0.013410042414186
  12    0.0063492231498907
  13    0.0073195300722941
  14    -0.0058593368129587
  15      0.55573373156623
  16      0.37269620980355
  17     -0.30124322203435
  18      0.11361236064093
  19      -0.4617464638476
  20      0.14551693864816
  21       0.0960165658553
  22    -0.078683804453242
  23     0.031178644811419
  24     -0.11884562694963
  25    0.00018544042875139
  26    0.0018424290097901
  27    5.7470488291684e-05
  28    0.0015978291813452
  29    -0.0013404472543295
  30    -0.00022278918267703
  31    -0.0018834257841876
  32    -0.0049522555905553
  33     -0.01211073583671
  34    -0.0094532742019943
  35    -0.024701384690639
  36    -0.080574295798597
  37     0.072928725850684
  38     -0.02770864806503
  39    -0.078729708553005
  40     0.070917844386651
  41    0.00072504458911453
  42    -0.0020999571291877
  43    -0.0011412673295639
  44    0.0011128000532335
  45    0.0018368762945103
  46    -0.00099724033824948
  47    0.0029515374081969
  48    -0.013400585597051
  49      0.01446610571089
  50    -0.0046655903895294
  51    0.0043688509607929
  52    -0.0025493865368774
  53    0.0010423946006423
  54    -0.014013367405023
  55    0.0081151053650594
  56    -0.0033440834419939
  57     0.013263301057871
  58    -0.015551065886123
  59     0.013740099813641
  60    -0.0018787849519346
  61    7.8200152674265e-05
  62    0.00050362599138606
  63    0.0034024829482156
  64    -0.0022532445933275
  65    -0.002182891638057
  66    0.0033959813417378
  67    0.0016094055784985
  68     0.002028813845705
  69    -0.0052258597161275
  70    -1.681331493154e-05
  71    -0.00060519430597032
  72    6.3329954541508e-05
  73    1.2598630868893e-05
  74    0.00037244518642909
  75    0.00049413655516969
  76    -0.00070224170066852
  77    -0.0036842559790961
  78     0.024146621756334
  79    -0.030150272624177
  80    -0.030433161737667
  81    -0.010490711919183
  82    -0.027802840103749
  83     0.029951513713108
  84    -0.017497772633713
  85    -0.047315335887024
  86     0.051387892732084
  87    -0.029785447533905
  88    -0.083035102576506
  89     0.091863781407927
  90    -0.0011947047336018
  91    -0.0017922832850716
  92    4.8774475412784e-05
  93    1.0418917764857e-05
  94    0.00041264209440765
  95    0.00049070854166909
  96    -0.0031845107765483
  97    0.0034601315521428
  98    0.0058604233519174
  99    -0.00068600737657606
 100    -0.005153552523248
 101     0.011277395272611
 102    -0.001207127479214
 103    -0.0089057773396697
 104     0.019222276808938
 105    -0.0027498137924087
 106    -0.013263497745558
 107     0.032102202746115
 108    -0.00081715248762572
 109    0.00044144450007686
 110    0.00034345162139796
 111    -0.00038528308250466
 112    -0.0015494618898978
 113    0.0028928494300796
 114     -0.01883537216301
 115     0.022654912679874
 116     0.025959841714018
 117    0.00049587613976699
 118    -0.029140864562479
 119     0.021810550069313
 120    0.00057243606655362
 121    -0.049168087172477
 122     0.036474007186012
 123    2.9470469041626e-05
 124    -0.088167415333585
 125     0.063881074225759
 126    -0.00070082708068475
 127    0.00026002598147677
 128    0.00014760545359173
 129    -0.0011235027322938
 130    0.0018947674249324
 131    -0.00017049919607409
 132    0.0011401136925128
 133    -0.001725045104346
 134    -0.0024248573020024
 135    -0.00042042230321253
 136     0.001552138833701
 137    0.00049730744062808
 138    -0.00072036308549835
 139    0.0024571555497773
 140    0.00090432183091767
 141    -0.0020352120629051
 142    0.0065318272294702
 143    0.0020248183160954
 144    -4.3134592700698e-05
 145    -0.00031011178172976
 146    0.00012781014117248
 147    5.3133615159608e-05
 148    -0.00031408146525237
 149    0.00018101868868941
 150    -0.0011886126104175
 151    0.00091503143901432
 152    0.0072151148312048
 153    0.0025471171367141
 154    0.0005419048238558
 155    -0.0009044537223123
 156    0.0044513097677077
 157    0.00099375745445081
 158    -0.0017626264133579
 159    0.0083261905239385
 160    -0.00016375101728031
 161    0.0010737438328966
 162    0.00015525851910742
 163    0.00028851713292124
 164    -0.00013359621999472
 165    -0.0001891201293969
 166    -0.00016096990902031
 167    -0.00040050709717474
 168    0.0026828483225547
 169    -0.0046674357854834
 170    -0.0029472414168984
 171    -0.0033146510060247
 172    -0.0015382442926114
 173    -0.00099051976703225
 174    -0.0058706756883166
 175    -0.0027425884691998
 176    -0.0014937002482366
 177    -0.0094797434439811
 178    -0.0053205185133963
 179    -0.0046150138687603
 180    -0.00038494983995686
 181    0.0001076842479549
 182    -0.00010945553932269
 183    0.0005085518613676