[Molden Format]
made by pyscf v[2.2.1]
[Atoms] (AU)
Fe   1   26     3.17068844873907     0.00098706064664     0.12237737881307
O   2   8     0.00000000000000     0.00000000000000    -0.89004350580623
Fe   3   26    -3.17068844873907    -0.00098706064664     0.12237737881307
Cl   4   17     3.53383895113107    -2.07485195383062     3.76228752659000
Cl   5   17     5.54152580550813    -1.85590924879884    -2.78672786652360
Cl   6   17     4.48169216485503     3.92976278472880    -0.95330240907949
Cl   7   17    -3.53383895113107     2.07485195383062     3.76228752659000
Cl   8   17    -5.54152580550813     1.85590924879884    -2.78672786652360
Cl   9   17    -4.48169216485503    -3.92976278472880    -0.95330240907949
[GTO]
1 0
 s    6 1.00
          60923.640643  0.0017552243692958
          9147.8893982   0.013449023284001
          2081.3505927   0.066678874640978
          587.55977067    0.23176348548844
           191.0904399    0.46945550248188
          65.732730112     0.3596824938678
 s    3 1.00
          127.25891928   -0.10723431835929
           14.83091301    0.62971616328466
          6.0653307408    0.44472317896179
 s    3 1.00
           10.44994371   -0.21694289195548
          1.7245228003    0.69457867408393
         0.71772177325    0.43298308896347
 s    1 1.00
        0.091449828308                   1
 s    1 1.00
        0.033706691021                   1
 p    5 1.00
          773.43750995  0.0091440529992506
          182.15149714   0.067887577136571
          57.547272758    0.26167978878504
          20.614988935    0.51088040113251
           7.634855789    0.33235475570224
 p    3 1.00
           3.871932799    0.33193859098144
          1.4924724132     0.5553666555499
         0.56061284958    0.23106034201617
 p    1 1.00
              0.134915                   1
 d    4 1.00
          38.968133419   0.033335938558743
          10.800067078    0.17766212505983
          3.6136457999      0.441281781625
          1.2129967888    0.57089200490673
 d    1 1.00
          0.3652439317                   1
 f    1 1.00
                 1.598                   1

2 0
 s    5 1.00
          2266.1767785  -0.0053893503921743
          340.87010191   -0.04023472138896
          77.363135167   -0.18008184205526
           21.47964494   -0.46828857657651
          6.6589433124   -0.44692617160187
 s    1 1.00
         0.80975975668                   1
 s    1 1.00
         0.25530772234                   1
 p    3 1.00
          17.721504317   0.062630248763161
           3.863550544    0.33331138482352
          1.0480920883    0.74148638308122
 p    1 1.00
         0.27641544411                   1
 d    1 1.00
                   1.2                   1

3 0
 s    6 1.00
          60923.640643  0.0017552243692958
          9147.8893982   0.013449023284001
          2081.3505927   0.066678874640978
          587.55977067    0.23176348548844
           191.0904399    0.46945550248188
          65.732730112     0.3596824938678
 s    3 1.00
          127.25891928   -0.10723431835929
           14.83091301    0.62971616328466
          6.0653307408    0.44472317896179
 s    3 1.00
           10.44994371   -0.21694289195548
          1.7245228003    0.69457867408393
         0.71772177325    0.43298308896347
 s    1 1.00
        0.091449828308                   1
 s    1 1.00
        0.033706691021                   1
 p    5 1.00
          773.43750995  0.0091440529992506
          182.15149714   0.067887577136571
          57.547272758    0.26167978878504
          20.614988935    0.51088040113251
           7.634855789    0.33235475570224
 p    3 1.00
           3.871932799    0.33193859098144
          1.4924724132     0.5553666555499
         0.56061284958    0.23106034201617
 p    1 1.00
              0.134915                   1
 d    4 1.00
          38.968133419   0.033335938558743
          10.800067078    0.17766212505983
          3.6136457999      0.441281781625
          1.2129967888    0.57089200490673
 d    1 1.00
          0.3652439317                   1
 f    1 1.00
                 1.598                   1

4 0
 s    5 1.00
          10449.827566  0.0054265953789407
          1571.7365221   0.040626378128836
          357.12065523    0.18359747852877
          100.25185935    0.47438948768198
          30.812727554    0.43735181104122
 s    3 1.00
          51.923789434  -0.092754154848099
          5.7045760975    0.56380825544207
          2.3508376809    0.50367044629712
 s    1 1.00
         0.44605124672                   1
 s    1 1.00
          0.1684885619                   1
 p    5 1.00
          307.66790569  -0.0088797025588865
          72.102015515  -0.064284071721237
          22.532680262   -0.24288739736006
          7.8991765444   -0.48340836369878
          2.8767268321   -0.38952563875509
 p    1 1.00
         0.77459363955                   1
 p    1 1.00
         0.21037699698                   1
 d    1 1.00
                  0.65                   1

5 0
 s    5 1.00
          10449.827566  0.0054265953789407
          1571.7365221   0.040626378128836
          357.12065523    0.18359747852877
          100.25185935    0.47438948768198
          30.812727554    0.43735181104122
 s    3 1.00
          51.923789434  -0.092754154848099
          5.7045760975    0.56380825544207
          2.3508376809    0.50367044629712
 s    1 1.00
         0.44605124672                   1
 s    1 1.00
          0.1684885619                   1
 p    5 1.00
          307.66790569  -0.0088797025588865
          72.102015515  -0.064284071721237
          22.532680262   -0.24288739736006
          7.8991765444   -0.48340836369878
          2.8767268321   -0.38952563875509
 p    1 1.00
         0.77459363955                   1
 p    1 1.00
         0.21037699698                   1
 d    1 1.00
                  0.65                   1

6 0
 s    5 1.00
          10449.827566  0.0054265953789407
          1571.7365221   0.040626378128836
          357.12065523    0.18359747852877
          100.25185935    0.47438948768198
          30.812727554    0.43735181104122
 s    3 1.00
          51.923789434  -0.092754154848099
          5.7045760975    0.56380825544207
          2.3508376809    0.50367044629712
 s    1 1.00
         0.44605124672                   1
 s    1 1.00
          0.1684885619                   1
 p    5 1.00
          307.66790569  -0.0088797025588865
          72.102015515  -0.064284071721237
          22.532680262   -0.24288739736006
          7.8991765444   -0.48340836369878
          2.8767268321   -0.38952563875509
 p    1 1.00
         0.77459363955                   1
 p    1 1.00
         0.21037699698                   1
 d    1 1.00
                  0.65                   1

7 0
 s    5 1.00
          10449.827566  0.0054265953789407
          1571.7365221   0.040626378128836
          357.12065523    0.18359747852877
          100.25185935    0.47438948768198
          30.812727554    0.43735181104122
 s    3 1.00
          51.923789434  -0.092754154848099
          5.7045760975    0.56380825544207
          2.3508376809    0.50367044629712
 s    1 1.00
         0.44605124672                   1
 s    1 1.00
          0.1684885619                   1
 p    5 1.00
          307.66790569  -0.0088797025588865
          72.102015515  -0.064284071721237
          22.532680262   -0.24288739736006
          7.8991765444   -0.48340836369878
          2.8767268321   -0.38952563875509
 p    1 1.00
         0.77459363955                   1
 p    1 1.00
         0.21037699698                   1
 d    1 1.00
                  0.65                   1

8 0
 s    5 1.00
          10449.827566  0.0054265953789407
          1571.7365221   0.040626378128836
          357.12065523    0.18359747852877
          100.25185935    0.47438948768198
          30.812727554    0.43735181104122
 s    3 1.00
          51.923789434  -0.092754154848099
          5.7045760975    0.56380825544207
          2.3508376809    0.50367044629712
 s    1 1.00
         0.44605124672                   1
 s    1 1.00
          0.1684885619                   1
 p    5 1.00
          307.66790569  -0.0088797025588865
          72.102015515  -0.064284071721237
          22.532680262   -0.24288739736006
          7.8991765444   -0.48340836369878
          2.8767268321   -0.38952563875509
 p    1 1.00
         0.77459363955                   1
 p    1 1.00
         0.21037699698                   1
 d    1 1.00
                  0.65                   1

9 0
 s    5 1.00
          10449.827566  0.0054265953789407
          1571.7365221   0.040626378128836
          357.12065523    0.18359747852877
          100.25185935    0.47438948768198
          30.812727554    0.43735181104122
 s    3 1.00
          51.923789434  -0.092754154848099
          5.7045760975    0.56380825544207
          2.3508376809    0.50367044629712
 s    1 1.00
         0.44605124672                   1
 s    1 1.00
          0.1684885619                   1
 p    5 1.00
          307.66790569  -0.0088797025588865
          72.102015515  -0.064284071721237
          22.532680262   -0.24288739736006
          7.8991765444   -0.48340836369878
          2.8767268321   -0.38952563875509
 p    1 1.00
         0.77459363955                   1
 p    1 1.00
         0.21037699698                   1
 d    1 1.00
                  0.65                   1

[5d]
[7f]
[9g]

[MO]
 Sym= B
 Ene=               0
 Spin= Alpha
 Occup=    1.00000
   1    0.0018321067713439
   2    -0.0051637487768341
   3     0.025899139685632
   4    -0.011986931379694
   5    0.0048750446185107
   6    0.0047151430292842
   7    -0.012647778477077
   8    0.0011344394535503
   9    -0.015977058253625
  10     0.041082931881904
  11    -0.0039731734393343
  12     0.016445596767088
  13    -0.090150053826428
  14    0.0044864073716754
  15    0.0014184003069787
  16    -0.016480022039047
  17     0.025677402742674
  18    -0.034539488264655
  19      0.11148203627621
  20    0.0023469371253255
  21    -0.0077794723657873
  22     0.016224977348811
  23    -0.016210739024604
  24     0.071189522438825
  25    -0.0004819663524669
  26    -0.00035270666171255
  27    0.00063208333070776
  28    0.00093263339243942
  29    -0.0019782100600529
  30    0.00074214342588667
  31    -0.0041426592389386
  32    -5.6050650101016e-17
  33    -1.7227942806573e-16
  34    -1.1991350340489e-16
  35     -0.10203773992807
  36     -0.54736261938535
  37    1.8774869103141e-15
  38    -0.082662773498102
  39     -0.47142117059737
  40    1.6228020670193e-15
  41    4.2443883553916e-17
  42    -0.002785726077031
  43    -0.011231845427715
  44    1.523495449449e-18
  45    1.2420117012326e-19
  46    -0.0018321067713439
  47    0.0051637487768342
  48    -0.025899139685632
  49     0.011986931379695
  50    -0.0048750446185109
  51    0.0047151430292842
  52    -0.012647778477077
  53    -0.0011344394535502
  54    -0.015977058253625
  55     0.041082931881904
  56    0.0039731734393341
  57     0.016445596767088
  58    -0.090150053826428
  59    -0.0044864073716748
  60    -0.0014184003069789
  61    -0.016480022039047
  62     0.025677402742674
  63     0.034539488264655
  64     -0.11148203627621
  65    -0.0023469371253257
  66    -0.007779472365787
  67     0.016224977348811
  68     0.016210739024605
  69    -0.071189522438825
  70    0.00048196635246689
  71    -0.00035270666171257
  72    0.00063208333070776
  73    -0.0009326333924394
  74    0.0019782100600529
  75    0.00074214342588669
  76    -0.0041426592389386
  77    -0.00034699922176417
  78    0.0021975307651734
  79    -0.0011622389245625
  80    -0.013210372938591
  81    0.0034750158791108
  82    0.0033087037757105
  83    0.0034049953649542
  84    0.0069591327752373
  85    0.0055447775714066
  86    0.0048121919118461
  87    0.0064451190848049
  88    0.0098829562133221
  89     0.019433155355615
  90    -0.00065777884366953
  91    0.0021079571993285
  92    0.00092829252536894
  93    0.00088585522619947
  94    7.7404054096318e-05
  95    -0.00022388620536495
  96    0.0013259059338185
  97    0.00066587044213501
  98    -0.012611323239565
  99    0.0031441241143965
 100    0.0022038094732379
 101    -0.0012756226322608
 102    0.0053812666606542
 103    0.0035388731414437
 104    -0.00092140627738049
 105     0.011773712601273
 106    0.0083417774543068
 107    -0.012068033681905
 108    -0.0017935211193693
 109    0.00014416678127697
 110    -0.00028951251509544
 111    0.00070263205009653
 112    0.00046814922325611
 113    0.0021231185226691
 114    -0.014105829757733
 115     0.022427457905939
 116     0.026792996282619
 117    -0.012244516117181
 118    -0.0090910988178282
 119    0.0020459839195917
 120    -0.022537424749554
 121    -0.015581124944533
 122    0.0027509762557858
 123    -0.034631558384506
 124    -0.036353660540941
 125     0.011870401891566
 126    0.0013459519493504
 127    -0.0005011093463748
 128    -0.0022065280927459
 129    -0.0046546778262733
 130    -0.0029112110879312
 131    0.00034699922176413
 132    -0.0021975307651732
 133    0.0011622389245623
 134     0.013210372938591
 135    0.0034750158791107
 136    0.0033087037757106
 137    -0.0034049953649541
 138    0.0069591327752372
 139    0.0055447775714067
 140    -0.004812191911846
 141    0.0064451190848047
 142    0.0098829562133224
 143    -0.019433155355614
 144    0.00065777884366952
 145    0.0021079571993285
 146    0.00092829252536893
 147    -0.00088585522619945
 148    -7.7404054096328e-05
 149    0.00022388620536495
 150    -0.0013259059338185
 151    -0.00066587044213505
 152     0.012611323239565
 153    0.0031441241143965
 154    0.0022038094732379
 155    0.0012756226322608
 156    0.0053812666606542
 157    0.0035388731414437
 158    0.00092140627738049
 159     0.011773712601273
 160    0.0083417774543067
 161     0.012068033681905
 162    0.0017935211193693
 163    0.00014416678127698
 164    -0.00028951251509545
 165    -0.00070263205009654
 166    -0.00046814922325611
 167    -0.0021231185226692
 168     0.014105829757733
 169     -0.02242745790594
 170    -0.026792996282619
 171    -0.012244516117181
 172    -0.0090910988178282
 173    -0.0020459839195918
 174    -0.022537424749554
 175    -0.015581124944533
 176    -0.0027509762557858
 177    -0.034631558384506
 178    -0.036353660540941
 179    -0.011870401891566
 180    -0.0013459519493504
 181    -0.00050110934637479
 182    -0.0022065280927459
 183    0.0046546778262733
 184    0.0029112110879312
 Sym= A
 Ene=               1
 Spin= Alpha
 Occup=    1.00000
   1    0.0036274424827109
   2    -0.010167233031495
   3     0.051495309676676
   4    -0.046141937426284
   5     0.030201324527319
   6     0.012086018883626
   7    -0.00053181809008947
   8    -0.0097165587802162
   9    -0.040544541843658
  10    0.0016133852469279
  11     0.031163383736298
  12     0.055912947194781
  13     0.001785713926862
  14     -0.08368350534096
  15     0.076036277005953
  16     0.061155525387894
  17    -0.013042230317548
  18    -0.077280155401351
  19    0.0037219160289984
  20     0.042517968629238
  21     0.045522104166638
  22    -0.0046442630236129
  23    -0.040980655402642
  24    0.0019347599417438
  25    0.00099598705788959
  26    -0.0036400162590604
  27    -0.00032708281393351
  28    -0.0016614682310019
  29    -4.4836856458291e-05
  30    0.0023631001960599
  31    -6.6850412499103e-06
  32     0.012542611951801
  33       0.0431700597337
  34     0.032526142723456
  35    -3.7711372121448e-16
  36    -1.8826842850112e-15
  37     -0.54879846219588
  38    -3.1616245610893e-16
  39    -1.6207995060996e-15
  40     -0.47201491527771
  41    -0.012382538230439
  42    -1.0551440984345e-17
  43    -3.8565746285567e-17
  44    -0.00079125840026351
  45    -0.00012030532446166
  46    0.0036274424827108
  47    -0.010167233031495
  48     0.051495309676676
  49    -0.046141937426284
  50     0.030201324527319
  51    -0.012086018883626
  52    0.00053181809008938
  53    -0.0097165587802162
  54     0.040544541843658
  55    -0.0016133852469276
  56     0.031163383736298
  57    -0.055912947194781
  58    -0.0017857139268626
  59     -0.08368350534096
  60     0.076036277005953
  61    -0.061155525387894
  62     0.013042230317548
  63    -0.077280155401351
  64    0.0037219160289976
  65     0.042517968629238
  66    -0.045522104166638
  67     0.004644263023613
  68    -0.040980655402642
  69    0.0019347599417433
  70    0.0009959870578896
  71    0.0036400162590604
  72    0.00032708281393351
  73    -0.0016614682310019
  74    -4.4836856458277e-05
  75    -0.0023631001960599
  76    6.6850412498823e-06
  77     0.002220256157182
  78    -0.014843985658276
  79     0.026171202832148
  80     0.022031273947029
  81    -0.010424262850429
  82    0.0081141814483491
  83    -0.011144368090777
  84    -0.019026312230723
  85     0.013588656120706
  86    -0.019968509034228
  87    -0.028653488930673
  88     0.031377310143925
  89     -0.03819260027206
  90    0.0017971164076315
  91    -0.0025619812287959
  92    -0.0016827542528683
  93    -0.0025143000162039
  94    0.0015075016426563
  95    -0.00027309835142147
  96    0.0014796704741984
  97    0.0043376537786214
  98    -0.028021275567657
  99    0.0039166687415348
 100    -0.001248339497601
 101    0.0021213025460615
 102    0.0067908653840077
 103    -0.00092261716000163
 104    0.0048477874727315
 105     0.015718873101597
 106    -0.012966980733552
 107    -0.0021987921209231
 108    -0.0017379766721529
 109    0.00075063309972234
 110    -0.0016179256051671
 111    0.0020703052857473
 112    -0.00047092492918708
 113    0.00045663491240681
 114    -0.0032423894509327
 115     0.010787908017636
 116    -0.013510882005327
 117    -0.0017476112259283
 118    -0.0026652990116834
 119    0.0056911146688486
 120    -0.0027117473143579
 121    -0.0061198956789564
 122    0.0096571279037115
 123    -0.0061572504403319
 124    0.0022832401521211
 125     0.018372388826186
 126    0.00037237188140764
 127    0.0010978459449091
 128    0.00050850297709529
 129    0.00055715887836718
 130    0.00094479533632515
 131     0.002220256157182
 132    -0.014843985658276
 133     0.026171202832148
 134     0.022031273947029
 135     0.010424262850429
 136    -0.0081141814483491
 137    -0.011144368090777
 138     0.019026312230723
 139    -0.013588656120706
 140    -0.019968509034228
 141     0.028653488930673
 142    -0.031377310143925
 143     -0.03819260027206
 144    0.0017971164076315
 145    0.0025619812287959
 146    0.0016827542528683
 147    -0.002514300016204
 148    0.0015075016426563
 149    -0.00027309835142147
 150    0.0014796704741983
 151    0.0043376537786214
 152    -0.028021275567657
 153    -0.0039166687415348
 154     0.001248339497601
 155    0.0021213025460616
 156    -0.0067908653840077
 157    0.00092261716000161
 158    0.0048477874727315
 159    -0.015718873101597
 160     0.012966980733552
 161    -0.0021987921209229
 162    -0.0017379766721529
 163    -0.00075063309972233
 164    0.0016179256051671
 165    0.0020703052857473
 166    -0.00047092492918709
 167    0.00045663491240682
 168    -0.0032423894509327
 169     0.010787908017636
 170    -0.013510882005327
 171    0.0017476112259282
 172    0.0026652990116834
 173    0.0056911146688486
 174    0.0027117473143577
 175    0.0061198956789564
 176    0.0096571279037114
 177    0.0061572504403318
 178    -0.0022832401521214
 179     0.018372388826186
 180    0.00037237188140763
 181    -0.0010978459449091
 182    -0.0005085029770953
 183    0.00055715887836721
 184    0.00094479533632518
 Sym= B
 Ene=               2
 Spin= Alpha
 Occup=    1.00000
   1    0.0099393686434724
   2    -0.027848812019527
   3       0.1411622341964
   4    -0.090139061890282
   5     0.003024031686437
   6     0.024324304953097
   7    0.0025953772101537
   8    0.0086615307789998
   9    -0.082455677163835
  10    -0.0084494340046228
  11    -0.029076605768864
  12     0.083065022650409
  13     0.020264376528075
  14      0.01586062144468
  15     0.056121568856153
  16      -0.1029038641967
  17    -0.010235835520814
  18     -0.12875419157426
  19    -0.022302766262009
  20      0.02644284844161
  21    -0.049134543824247
  22    -0.0053590041563486
  23    -0.061332735148451
  24     -0.01448096147491
  25    -0.0025778499015603
  26    -0.0013585837895904
  27    -0.00068802560484078
  28    0.0039292704113346
  29    0.00052268608373534
  30    0.0040851532936604
  31    0.00057202769484053
  32    -1.2610810620271e-18
  33    1.4449112959815e-17
  34    1.4476301139132e-17
  35      -0.5163572763464
  36      0.10440197722885
  37    -3.4359043335525e-16
  38     -0.42578577141926
  39     0.090276726593525
  40    -2.9974455997092e-16
  41    -7.307219363753e-18
  42    -0.013666318632104
  43    0.0020344334285879
  44    -1.2411179929371e-18
  45    -5.7752085181329e-19
  46    -0.0099393686434721
  47     0.027848812019527
  48      -0.1411622341964
  49     0.090139061890282
  50    -0.003024031686437
  51     0.024324304953097
  52    0.0025953772101537
  53    -0.0086615307789998
  54    -0.082455677163835
  55    -0.0084494340046228
  56     0.029076605768864
  57     0.083065022650409
  58     0.020264376528075
  59     -0.01586062144468
  60    -0.056121568856153
  61      -0.1029038641967
  62    -0.010235835520814
  63      0.12875419157426
  64     0.022302766262009
  65     -0.02644284844161
  66    -0.049134543824247
  67    -0.0053590041563486
  68     0.061332735148451
  69      0.01448096147491
  70    0.0025778499015603
  71    -0.0013585837895904
  72    -0.00068802560484077
  73    -0.0039292704113346
  74    -0.00052268608373534
  75    0.0040851532936604
  76    0.00057202769484053
  77    0.0022382241360707
  78    -0.014983462934043
  79     0.024963738945584
  80     0.026369684209944
  81    -0.0036318843989078
  82    0.0063208906190919
  83     -0.01331475288542
  84    -0.0061972869670185
  85     0.011739854643391
  86    -0.024338865470239
  87     -0.01400042795496
  88     0.018687957639033
  89    -0.041275058191418
  90    0.00083826545506319
  91    -0.00062863750084196
  92    -0.00085426076078035
  93    -0.00084092763095161
  94    -0.00024535349432357
  95    0.0027359208033928
  96    -0.018406992940787
  97     0.034977561413231
  98     0.015310148500896
  99     -0.01538309621869
 100    0.0053505317278919
 101    0.0088334200367262
 102    -0.028228076593495
 103     0.010922652634123
 104     0.017024125613586
 105    -0.042078701828641
 106    0.0099739256219212
 107     0.020931272204716
 108    0.0016079151360846
 109    -0.00067069370204434
 110    0.00038302239051778
 111    -0.0019789121943507
 112    0.00024831548686242
 113    0.0021892224337422
 114    -0.014710376202761
 115     0.027354173993581
 116     0.013194588383808
 117    -0.007400406619907
 118    -0.012722240361385
 119     0.002704783739107
 120    -0.012759830280659
 121    -0.024461608735438
 122    0.0051620308762449
 123    -0.024456582253974
 124    -0.029557188471663
 125    0.0058773077360566
 126    0.00051267781719464
 127    -0.00070452315427735
 128    -0.00040887996939892
 129    -0.00086842891550872
 130    -0.00087070083509051
 131    -0.0022382241360708
 132     0.014983462934043
 133    -0.024963738945584
 134    -0.026369684209944
 135    -0.0036318843989078
 136    0.0063208906190919
 137     0.013314752885419
 138    -0.0061972869670185
 139     0.011739854643391
 140     0.024338865470239
 141     -0.01400042795496
 142     0.018687957639033
 143     0.041275058191418
 144    -0.00083826545506319
 145    -0.00062863750084196
 146    -0.00085426076078034
 147    0.00084092763095161
 148    0.00024535349432357
 149    -0.0027359208033928
 150     0.018406992940787
 151    -0.034977561413231
 152    -0.015310148500896
 153     -0.01538309621869
 154    0.0053505317278919
 155    -0.0088334200367262
 156    -0.028228076593495
 157     0.010922652634123
 158    -0.017024125613586
 159    -0.042078701828641
 160    0.0099739256219212
 161    -0.020931272204715
 162    -0.0016079151360846
 163    -0.00067069370204434
 164    0.00038302239051778
 165    0.0019789121943507
 166    -0.00024831548686242
 167    -0.0021892224337422
 168     0.014710376202761
 169    -0.027354173993581
 170    -0.013194588383808
 171    -0.007400406619907
 172    -0.012722240361385
 173    -0.002704783739107
 174    -0.012759830280659
 175    -0.024461608735438
 176    -0.0051620308762449
 177    -0.024456582253974
 178    -0.029557188471663
 179    -0.0058773077360565
 180    -0.00051267781719464
 181    -0.00070452315427735
 182    -0.00040887996939892
 183    0.00086842891550872
 184    0.00087070083509051
