[Molden Format]
made by pyscf v[2.2.1]
[Atoms] (AU)
Fe   1   26     3.17068844873907     0.00098706064664     0.12237737881307
O   2   8     0.00000000000000     0.00000000000000    -0.89004350580623
Fe   3   26    -3.17068844873907    -0.00098706064664     0.12237737881307
Cl   4   17     3.53383895113107    -2.07485195383062     3.76228752659000
Cl   5   17     5.54152580550813    -1.85590924879884    -2.78672786652360
Cl   6   17     4.48169216485503     3.92976278472880    -0.95330240907949
Cl   7   17    -3.53383895113107     2.07485195383062     3.76228752659000
Cl   8   17    -5.54152580550813     1.85590924879884    -2.78672786652360
Cl   9   17    -4.48169216485503    -3.92976278472880    -0.95330240907949
[GTO]
1 0
 s    6 1.00
          60923.640643  0.0017552243692958
          9147.8893982   0.013449023284001
          2081.3505927   0.066678874640978
          587.55977067    0.23176348548844
           191.0904399    0.46945550248188
          65.732730112     0.3596824938678
 s    3 1.00
          127.25891928   -0.10723431835929
           14.83091301    0.62971616328466
          6.0653307408    0.44472317896179
 s    3 1.00
           10.44994371   -0.21694289195548
          1.7245228003    0.69457867408393
         0.71772177325    0.43298308896347
 s    1 1.00
        0.091449828308                   1
 s    1 1.00
        0.033706691021                   1
 p    5 1.00
          773.43750995  0.0091440529992506
          182.15149714   0.067887577136571
          57.547272758    0.26167978878504
          20.614988935    0.51088040113251
           7.634855789    0.33235475570224
 p    3 1.00
           3.871932799    0.33193859098144
          1.4924724132     0.5553666555499
         0.56061284958    0.23106034201617
 p    1 1.00
              0.134915                   1
 d    4 1.00
          38.968133419   0.033335938558743
          10.800067078    0.17766212505983
          3.6136457999      0.441281781625
          1.2129967888    0.57089200490673
 d    1 1.00
          0.3652439317                   1
 f    1 1.00
                 1.598                   1

2 0
 s    5 1.00
          2266.1767785  -0.0053893503921743
          340.87010191   -0.04023472138896
          77.363135167   -0.18008184205526
           21.47964494   -0.46828857657651
          6.6589433124   -0.44692617160187
 s    1 1.00
         0.80975975668                   1
 s    1 1.00
         0.25530772234                   1
 p    3 1.00
          17.721504317   0.062630248763161
           3.863550544    0.33331138482352
          1.0480920883    0.74148638308122
 p    1 1.00
         0.27641544411                   1
 d    1 1.00
                   1.2                   1

3 0
 s    6 1.00
          60923.640643  0.0017552243692958
          9147.8893982   0.013449023284001
          2081.3505927   0.066678874640978
          587.55977067    0.23176348548844
           191.0904399    0.46945550248188
          65.732730112     0.3596824938678
 s    3 1.00
          127.25891928   -0.10723431835929
           14.83091301    0.62971616328466
          6.0653307408    0.44472317896179
 s    3 1.00
           10.44994371   -0.21694289195548
          1.7245228003    0.69457867408393
         0.71772177325    0.43298308896347
 s    1 1.00
        0.091449828308                   1
 s    1 1.00
        0.033706691021                   1
 p    5 1.00
          773.43750995  0.0091440529992506
          182.15149714   0.067887577136571
          57.547272758    0.26167978878504
          20.614988935    0.51088040113251
           7.634855789    0.33235475570224
 p    3 1.00
           3.871932799    0.33193859098144
          1.4924724132     0.5553666555499
         0.56061284958    0.23106034201617
 p    1 1.00
              0.134915                   1
 d    4 1.00
          38.968133419   0.033335938558743
          10.800067078    0.17766212505983
          3.6136457999      0.441281781625
          1.2129967888    0.57089200490673
 d    1 1.00
          0.3652439317                   1
 f    1 1.00
                 1.598                   1

4 0
 s    5 1.00
          10449.827566  0.0054265953789407
          1571.7365221   0.040626378128836
          357.12065523    0.18359747852877
          100.25185935    0.47438948768198
          30.812727554    0.43735181104122
 s    3 1.00
          51.923789434  -0.092754154848099
          5.7045760975    0.56380825544207
          2.3508376809    0.50367044629712
 s    1 1.00
         0.44605124672                   1
 s    1 1.00
          0.1684885619                   1
 p    5 1.00
          307.66790569  -0.0088797025588865
          72.102015515  -0.064284071721237
          22.532680262   -0.24288739736006
          7.8991765444   -0.48340836369878
          2.8767268321   -0.38952563875509
 p    1 1.00
         0.77459363955                   1
 p    1 1.00
         0.21037699698                   1
 d    1 1.00
                  0.65                   1

5 0
 s    5 1.00
          10449.827566  0.0054265953789407
          1571.7365221   0.040626378128836
          357.12065523    0.18359747852877
          100.25185935    0.47438948768198
          30.812727554    0.43735181104122
 s    3 1.00
          51.923789434  -0.092754154848099
          5.7045760975    0.56380825544207
          2.3508376809    0.50367044629712
 s    1 1.00
         0.44605124672                   1
 s    1 1.00
          0.1684885619                   1
 p    5 1.00
          307.66790569  -0.0088797025588865
          72.102015515  -0.064284071721237
          22.532680262   -0.24288739736006
          7.8991765444   -0.48340836369878
          2.8767268321   -0.38952563875509
 p    1 1.00
         0.77459363955                   1
 p    1 1.00
         0.21037699698                   1
 d    1 1.00
                  0.65                   1

6 0
 s    5 1.00
          10449.827566  0.0054265953789407
          1571.7365221   0.040626378128836
          357.12065523    0.18359747852877
          100.25185935    0.47438948768198
          30.812727554    0.43735181104122
 s    3 1.00
          51.923789434  -0.092754154848099
          5.7045760975    0.56380825544207
          2.3508376809    0.50367044629712
 s    1 1.00
         0.44605124672                   1
 s    1 1.00
          0.1684885619                   1
 p    5 1.00
          307.66790569  -0.0088797025588865
          72.102015515  -0.064284071721237
          22.532680262   -0.24288739736006
          7.8991765444   -0.48340836369878
          2.8767268321   -0.38952563875509
 p    1 1.00
         0.77459363955                   1
 p    1 1.00
         0.21037699698                   1
 d    1 1.00
                  0.65                   1

7 0
 s    5 1.00
          10449.827566  0.0054265953789407
          1571.7365221   0.040626378128836
          357.12065523    0.18359747852877
          100.25185935    0.47438948768198
          30.812727554    0.43735181104122
 s    3 1.00
          51.923789434  -0.092754154848099
          5.7045760975    0.56380825544207
          2.3508376809    0.50367044629712
 s    1 1.00
         0.44605124672                   1
 s    1 1.00
          0.1684885619                   1
 p    5 1.00
          307.66790569  -0.0088797025588865
          72.102015515  -0.064284071721237
          22.532680262   -0.24288739736006
          7.8991765444   -0.48340836369878
          2.8767268321   -0.38952563875509
 p    1 1.00
         0.77459363955                   1
 p    1 1.00
         0.21037699698                   1
 d    1 1.00
                  0.65                   1

8 0
 s    5 1.00
          10449.827566  0.0054265953789407
          1571.7365221   0.040626378128836
          357.12065523    0.18359747852877
          100.25185935    0.47438948768198
          30.812727554    0.43735181104122
 s    3 1.00
          51.923789434  -0.092754154848099
          5.7045760975    0.56380825544207
          2.3508376809    0.50367044629712
 s    1 1.00
         0.44605124672                   1
 s    1 1.00
          0.1684885619                   1
 p    5 1.00
          307.66790569  -0.0088797025588865
          72.102015515  -0.064284071721237
          22.532680262   -0.24288739736006
          7.8991765444   -0.48340836369878
          2.8767268321   -0.38952563875509
 p    1 1.00
         0.77459363955                   1
 p    1 1.00
         0.21037699698                   1
 d    1 1.00
                  0.65                   1

9 0
 s    5 1.00
          10449.827566  0.0054265953789407
          1571.7365221   0.040626378128836
          357.12065523    0.18359747852877
          100.25185935    0.47438948768198
          30.812727554    0.43735181104122
 s    3 1.00
          51.923789434  -0.092754154848099
          5.7045760975    0.56380825544207
          2.3508376809    0.50367044629712
 s    1 1.00
         0.44605124672                   1
 s    1 1.00
          0.1684885619                   1
 p    5 1.00
          307.66790569  -0.0088797025588865
          72.102015515  -0.064284071721237
          22.532680262   -0.24288739736006
          7.8991765444   -0.48340836369878
          2.8767268321   -0.38952563875509
 p    1 1.00
         0.77459363955                   1
 p    1 1.00
         0.21037699698                   1
 d    1 1.00
                  0.65                   1

[5d]
[7f]
[9g]

[MO]
 Sym= A
 Ene=               0
 Spin= Alpha
 Occup=    1.00000
   1                     0
   2                     0
   3                     0
   4                     1
   5                     0
   6                     0
   7                     0
   8                     0
   9                     0
  10                     0
  11                     0
  12                     0
  13                     0
  14                     0
  15                     0
  16                     0
  17                     0
  18                     0
  19                     0
  20                     0
  21                     0
  22                     0
  23                     0
  24                     0
  25                     0
  26                     0
  27                     0
  28                     0
  29                     0
  30                     0
  31                     0
  32                     0
  33                     0
  34                     0
  35                     0
  36                     0
  37                     0
  38                     0
  39                     0
  40                     0
  41                     0
  42                     0
  43                     0
  44                     0
  45                     0
  46                     0
  47                     0
  48                     0
  49                     0
  50                     0
  51                     0
  52                     0
  53                     0
  54                     0
  55                     0
  56                     0
  57                     0
  58                     0
  59                     0
  60                     0
  61                     0
  62                     0
  63                     0
  64                     0
  65                     0
  66                     0
  67                     0
  68                     0
  69                     0
  70                     0
  71                     0
  72                     0
  73                     0
  74                     0
  75                     0
  76                     0
  77                     0
  78                     0
  79                     0
  80                     0
  81                     0
  82                     0
  83                     0
  84                     0
  85                     0
  86                     0
  87                     0
  88                     0
  89                     0
  90                     0
  91                     0
  92                     0
  93                     0
  94                     0
  95                     0
  96                     0
  97                     0
  98                     0
  99                     0
 100                     0
 101                     0
 102                     0
 103                     0
 104                     0
 105                     0
 106                     0
 107                     0
 108                     0
 109                     0
 110                     0
 111                     0
 112                     0
 113                     0
 114                     0
 115                     0
 116                     0
 117                     0
 118                     0
 119                     0
 120                     0
 121                     0
 122                     0
 123                     0
 124                     0
 125                     0
 126                     0
 127                     0
 128                     0
 129                     0
 130                     0
 131                     0
 132                     0
 133                     0
 134                     0
 135                     0
 136                     0
 137                     0
 138                     0
 139                     0
 140                     0
 141                     0
 142                     0
 143                     0
 144                     0
 145                     0
 146                     0
 147                     0
 148                     0
 149                     0
 150                     0
 151                     0
 152                     0
 153                     0
 154                     0
 155                     0
 156                     0
 157                     0
 158                     0
 159                     0
 160                     0
 161                     0
 162                     0
 163                     0
 164                     0
 165                     0
 166                     0
 167                     0
 168                     0
 169                     0
 170                     0
 171                     0
 172                     0
 173                     0
 174                     0
 175                     0
 176                     0
 177                     0
 178                     0
 179                     0
 180                     0
 181                     0
 182                     0
 183                     0
 184                     0
 Sym= A
 Ene=               1
 Spin= Alpha
 Occup=    1.00000
   1                     0
   2                     0
   3                     0
   4                     0
   5                     0
   6                     0
   7                     0
   8                     0
   9                     0
  10                     0
  11                     0
  12                     0
  13                     0
  14                     0
  15                     0
  16                     0
  17                     0
  18                     0
  19                     1
  20                     0
  21                     0
  22                     0
  23                     0
  24                     0
  25                     0
  26                     0
  27                     0
  28                     0
  29                     0
  30                     0
  31                     0
  32                     0
  33                     0
  34                     0
  35                     0
  36                     0
  37                     0
  38                     0
  39                     0
  40                     0
  41                     0
  42                     0
  43                     0
  44                     0
  45                     0
  46                     0
  47                     0
  48                     0
  49                     0
  50                     0
  51                     0
  52                     0
  53                     0
  54                     0
  55                     0
  56                     0
  57                     0
  58                     0
  59                     0
  60                     0
  61                     0
  62                     0
  63                     0
  64                     0
  65                     0
  66                     0
  67                     0
  68                     0
  69                     0
  70                     0
  71                     0
  72                     0
  73                     0
  74                     0
  75                     0
  76                     0
  77                     0
  78                     0
  79                     0
  80                     0
  81                     0
  82                     0
  83                     0
  84                     0
  85                     0
  86                     0
  87                     0
  88                     0
  89                     0
  90                     0
  91                     0
  92                     0
  93                     0
  94                     0
  95                     0
  96                     0
  97                     0
  98                     0
  99                     0
 100                     0
 101                     0
 102                     0
 103                     0
 104                     0
 105                     0
 106                     0
 107                     0
 108                     0
 109                     0
 110                     0
 111                     0
 112                     0
 113                     0
 114                     0
 115                     0
 116                     0
 117                     0
 118                     0
 119                     0
 120                     0
 121                     0
 122                     0
 123                     0
 124                     0
 125                     0
 126                     0
 127                     0
 128                     0
 129                     0
 130                     0
 131                     0
 132                     0
 133                     0
 134                     0
 135                     0
 136                     0
 137                     0
 138                     0
 139                     0
 140                     0
 141                     0
 142                     0
 143                     0
 144                     0
 145                     0
 146                     0
 147                     0
 148                     0
 149                     0
 150                     0
 151                     0
 152                     0
 153                     0
 154                     0
 155                     0
 156                     0
 157                     0
 158                     0
 159                     0
 160                     0
 161                     0
 162                     0
 163                     0
 164                     0
 165                     0
 166                     0
 167                     0
 168                     0
 169                     0
 170                     0
 171                     0
 172                     0
 173                     0
 174                     0
 175                     0
 176                     0
 177                     0
 178                     0
 179                     0
 180                     0
 181                     0
 182                     0
 183                     0
 184                     0
 Sym= A
 Ene=               2
 Spin= Alpha
 Occup=    1.00000
   1                     0
   2                     0
   3                     0
   4                     0
   5                     0
   6                     0
   7                     0
   8                     0
   9                     0
  10                     0
  11                     0
  12                     0
  13                     0
  14                     0
  15                     0
  16                     0
  17                     1
  18                     0
  19                     0
  20                     0
  21                     0
  22                     0
  23                     0
  24                     0
  25                     0
  26                     0
  27                     0
  28                     0
  29                     0
  30                     0
  31                     0
  32                     0
  33                     0
  34                     0
  35                     0
  36                     0
  37                     0
  38                     0
  39                     0
  40                     0
  41                     0
  42                     0
  43                     0
  44                     0
  45                     0
  46                     0
  47                     0
  48                     0
  49                     0
  50                     0
  51                     0
  52                     0
  53                     0
  54                     0
  55                     0
  56                     0
  57                     0
  58                     0
  59                     0
  60                     0
  61                     0
  62                     0
  63                     0
  64                     0
  65                     0
  66                     0
  67                     0
  68                     0
  69                     0
  70                     0
  71                     0
  72                     0
  73                     0
  74                     0
  75                     0
  76                     0
  77                     0
  78                     0
  79                     0
  80                     0
  81                     0
  82                     0
  83                     0
  84                     0
  85                     0
  86                     0
  87                     0
  88                     0
  89                     0
  90                     0
  91                     0
  92                     0
  93                     0
  94                     0
  95                     0
  96                     0
  97                     0
  98                     0
  99                     0
 100                     0
 101                     0
 102                     0
 103                     0
 104                     0
 105                     0
 106                     0
 107                     0
 108                     0
 109                     0
 110                     0
 111                     0
 112                     0
 113                     0
 114                     0
 115                     0
 116                     0
 117                     0
 118                     0
 119                     0
 120                     0
 121                     0
 122                     0
 123                     0
 124                     0
 125                     0
 126                     0
 127                     0
 128                     0
 129                     0
 130                     0
 131                     0
 132                     0
 133                     0
 134                     0
 135                     0
 136                     0
 137                     0
 138                     0
 139                     0
 140                     0
 141                     0
 142                     0
 143                     0
 144                     0
 145                     0
 146                     0
 147                     0
 148                     0
 149                     0
 150                     0
 151                     0
 152                     0
 153                     0
 154                     0
 155                     0
 156                     0
 157                     0
 158                     0
 159                     0
 160                     0
 161                     0
 162                     0
 163                     0
 164                     0
 165                     0
 166                     0
 167                     0
 168                     0
 169                     0
 170                     0
 171                     0
 172                     0
 173                     0
 174                     0
 175                     0
 176                     0
 177                     0
 178                     0
 179                     0
 180                     0
 181                     0
 182                     0
 183                     0
 184                     0
 Sym= A
 Ene=               3
 Spin= Alpha
 Occup=    1.00000
   1                     0
   2                     0
   3                     0
   4                     0
   5                     0
   6                     0
   7                     0
   8                     0
   9                     0
  10                     0
  11                     0
  12                     0
  13                     0
  14                     0
  15                     1
  16                     0
  17                     0
  18                     0
  19                     0
  20                     0
  21                     0
  22                     0
  23                     0
  24                     0
  25                     0
  26                     0
  27                     0
  28                     0
  29                     0
  30                     0
  31                     0
  32                     0
  33                     0
  34                     0
  35                     0
  36                     0
  37                     0
  38                     0
  39                     0
  40                     0
  41                     0
  42                     0
  43                     0
  44                     0
  45                     0
  46                     0
  47                     0
  48                     0
  49                     0
  50                     0
  51                     0
  52                     0
  53                     0
  54                     0
  55                     0
  56                     0
  57                     0
  58                     0
  59                     0
  60                     0
  61                     0
  62                     0
  63                     0
  64                     0
  65                     0
  66                     0
  67                     0
  68                     0
  69                     0
  70                     0
  71                     0
  72                     0
  73                     0
  74                     0
  75                     0
  76                     0
  77                     0
  78                     0
  79                     0
  80                     0
  81                     0
  82                     0
  83                     0
  84                     0
  85                     0
  86                     0
  87                     0
  88                     0
  89                     0
  90                     0
  91                     0
  92                     0
  93                     0
  94                     0
  95                     0
  96                     0
  97                     0
  98                     0
  99                     0
 100                     0
 101                     0
 102                     0
 103                     0
 104                     0
 105                     0
 106                     0
 107                     0
 108                     0
 109                     0
 110                     0
 111                     0
 112                     0
 113                     0
 114                     0
 115                     0
 116                     0
 117                     0
 118                     0
 119                     0
 120                     0
 121                     0
 122                     0
 123                     0
 124                     0
 125                     0
 126                     0
 127                     0
 128                     0
 129                     0
 130                     0
 131                     0
 132                     0
 133                     0
 134                     0
 135                     0
 136                     0
 137                     0
 138                     0
 139                     0
 140                     0
 141                     0
 142                     0
 143                     0
 144                     0
 145                     0
 146                     0
 147                     0
 148                     0
 149                     0
 150                     0
 151                     0
 152                     0
 153                     0
 154                     0
 155                     0
 156                     0
 157                     0
 158                     0
 159                     0
 160                     0
 161                     0
 162                     0
 163                     0
 164                     0
 165                     0
 166                     0
 167                     0
 168                     0
 169                     0
 170                     0
 171                     0
 172                     0
 173                     0
 174                     0
 175                     0
 176                     0
 177                     0
 178                     0
 179                     0
 180                     0
 181                     0
 182                     0
 183                     0
 184                     0
 Sym= A
 Ene=               4
 Spin= Alpha
 Occup=    1.00000
   1                     0
   2                     0
   3                     0
   4                     0
   5                     0
   6                     0
   7                     0
   8                     0
   9                     0
  10                     0
  11                     0
  12                     0
  13                     0