[Molden Format]
made by pyscf v[2.3.0]
[Atoms] (AU)
C   1   6    -0.91443847167703    -2.52675280115594     0.00075589044983
C   2   6    -2.64542760177863    -0.47148666807898     0.00075589044983
C   3   6     1.73117810271405    -2.05526613307696     0.00113383567474
C   4   6    -1.73098913010160     2.05526613307696     0.00113383567474
C   5   6     2.64542760177863     0.47148666807898     0.00075589044983
C   6   6     0.91443847167703     2.52694177376840     0.00056691783737
C   7   6    -1.82906591596652    -5.05445046537417    -0.00037794522491
C   8   6    -5.29198903923200    -0.94316230877042     0.00037794522491
C   9   6     3.46273415065302    -4.11128815660375     0.00170075351211
C   10   6    -3.46273415065302     4.11128815660375     0.00170075351211
C   11   6     5.29198903923200     0.94316230877042     0.00037794522491
C   12   6     1.82906591596652     5.05445046537417    -0.00056691783737
C   13   6    -0.09732089541510    -7.11425194115009    -0.00018897261246
C   14   6    -7.02732453942010     1.11361560520619     0.00132280828720
C   15   6    -4.47808399738183    -5.52877172264000    -0.00207869873702
C   16   6    -6.20982901793325    -3.47274969911321    -0.00132280828720
C   17   6     6.11231914990569    -3.64150224203687     0.00188972612457
C   18   6    -2.54905156942581     6.64257630045865     0.00151178089965
C   19   6     2.54924054203827    -6.64257630045865     0.00207869873702
C   20   6    -6.11250812251815     3.64131326942442     0.00226767134948
C   21   6     6.20964004532079     3.47293867172567    -0.00075589044983
C   22   6     4.47808399738183     5.52896069525246    -0.00170075351211
C   23   6     7.02732453942010    -1.11361560520619     0.00056691783737
C   24   6     0.09732089541510     7.11425194115009    -0.00075589044983
C   25   6    -1.08545868595017    -9.59829693189086    -0.00321253441176
C   26   6    -9.64327241365551     0.56219352205811     0.00056691783737
C   27   6    -5.30861862912817    -8.06988644234264    -0.00585815098615
C   28   6    -8.85544559232433    -3.85938766419923    -0.00151178089965
C   29   6     7.76979793376171    -5.73928721291655     0.00321253441176
C   30   6    -4.33465378452734     8.63245790962566     0.00340150702422
C   31   6     4.33465378452734    -8.63245790962566     0.00415739747404
C   32   6    -7.76979793376171     5.73909824030409     0.00377945224913
C   33   6     8.85525661971188     3.85919869158677    -0.00094486306228
C   34   6     5.30861862912817     8.07007541495510    -0.00472431531141
C   35   6     9.64346138626797    -0.56219352205811     0.00000000000000
C   36   6     1.08545868595017     9.59848590450332    -0.00415739747404
C   37   6    -3.64736039302303   -10.07885428536776    -0.00623609621106
C   38   6   -10.55260862479622    -1.88084441177961    -0.00094486306228
C   39   6     6.90505925916074    -8.19857679142552     0.00415739747404
C   40   6    -6.90505925916074     8.19819884620061     0.00434637008650
C   41   6    10.55260862479622     1.88084441177961    -0.00113383567474
C   42   6     3.64754936563548    10.07904325798021    -0.00585815098615
H   43   1     0.11584021143584   -11.26068900367075    -0.00377945224913
H   44   1   -11.07738556958794     2.02862099472059     0.00094486306228
H   45   1    -7.29566564910833    -8.57860071507555    -0.00869274017300
H   46   1    -9.69448399163122    -5.73097241796846    -0.00226767134948
H   47   1     9.81013523045461    -5.53009453092720     0.00359047963667
H   48   1    -3.78153094786715    10.60759965502106     0.00415739747404
H   49   1     3.78153094786715   -10.60759965502106     0.00529123314878
H   50   1    -9.81032420306706     5.52990555831474     0.00472431531141
H   51   1     9.69429501901877     5.73078344535601    -0.00151178089965
H   52   1     7.29566564910833     8.57878968768801    -0.00623609621106
H   53   1    11.07738556958794    -2.02880996733305     0.00018897261246
H   54   1    -0.11602918404829    11.26087797628320    -0.00566917837370
H   55   1    -4.34542522343736   -12.00750876809886    -0.00907068539791
H   56   1   -12.57196996150644    -2.24064826589679    -0.00132280828720
H   57   1     8.22635576545663    -9.76723844742698     0.00548020576124
H   58   1    -8.22654473806908     9.76704947481452     0.00566917837370
H   59   1    12.57196996150644     2.24083723850925    -0.00151178089965
H   60   1     4.34542522343736    12.00788671332377    -0.00850376756054
[GTO]
1 0
 s    3 1.00
             71.616837    0.15432897000916
             13.045096    0.53532814003178
             3.5305122     0.4446345400264
 s    3 1.00
             2.9412494  -0.099967230075964
             0.6834831    0.39951283030359
             0.2222899    0.70011547053201
 p    3 1.00
             2.9412494    0.15591627210511
             0.6834831    0.60768372820466
             0.2222899    0.39195739529202

2 0
 s    3 1.00
             71.616837    0.15432897000916
             13.045096    0.53532814003178
             3.5305122     0.4446345400264
 s    3 1.00
             2.9412494  -0.099967230075964
             0.6834831    0.39951283030359
             0.2222899    0.70011547053201
 p    3 1.00
             2.9412494    0.15591627210511
             0.6834831    0.60768372820466
             0.2222899    0.39195739529202

3 0
 s    3 1.00
             71.616837    0.15432897000916
             13.045096    0.53532814003178
             3.5305122     0.4446345400264
 s    3 1.00
             2.9412494  -0.099967230075964
             0.6834831    0.39951283030359
             0.2222899    0.70011547053201
 p    3 1.00
             2.9412494    0.15591627210511
             0.6834831    0.60768372820466
             0.2222899    0.39195739529202

4 0
 s    3 1.00
             71.616837    0.15432897000916
             13.045096    0.53532814003178
             3.5305122     0.4446345400264
 s    3 1.00
             2.9412494  -0.099967230075964
             0.6834831    0.39951283030359
             0.2222899    0.70011547053201
 p    3 1.00
             2.9412494    0.15591627210511
             0.6834831    0.60768372820466
             0.2222899    0.39195739529202

5 0
 s    3 1.00
             71.616837    0.15432897000916
             13.045096    0.53532814003178
             3.5305122     0.4446345400264
 s    3 1.00
             2.9412494  -0.099967230075964
             0.6834831    0.39951283030359
             0.2222899    0.70011547053201
 p    3 1.00
             2.9412494    0.15591627210511
             0.6834831    0.60768372820466
             0.2222899    0.39195739529202

6 0
 s    3 1.00
             71.616837    0.15432897000916
             13.045096    0.53532814003178
             3.5305122     0.4446345400264
 s    3 1.00
             2.9412494  -0.099967230075964
             0.6834831    0.39951283030359
             0.2222899    0.70011547053201
 p    3 1.00
             2.9412494    0.15591627210511
             0.6834831    0.60768372820466
             0.2222899    0.39195739529202

7 0
 s    3 1.00
             71.616837    0.15432897000916
             13.045096    0.53532814003178
             3.5305122     0.4446345400264
 s    3 1.00
             2.9412494  -0.099967230075964
             0.6834831    0.39951283030359
             0.2222899    0.70011547053201
 p    3 1.00
             2.9412494    0.15591627210511
             0.6834831    0.60768372820466
             0.2222899    0.39195739529202

8 0
 s    3 1.00
             71.616837    0.15432897000916
             13.045096    0.53532814003178
             3.5305122     0.4446345400264
 s    3 1.00
             2.9412494  -0.099967230075964
             0.6834831    0.39951283030359
             0.2222899    0.70011547053201
 p    3 1.00
             2.9412494    0.15591627210511
             0.6834831    0.60768372820466
             0.2222899    0.39195739529202

9 0
 s    3 1.00
             71.616837    0.15432897000916
             13.045096    0.53532814003178
             3.5305122     0.4446345400264
 s    3 1.00
             2.9412494  -0.099967230075964
             0.6834831    0.39951283030359
             0.2222899    0.70011547053201
 p    3 1.00
             2.9412494    0.15591627210511
             0.6834831    0.60768372820466
             0.2222899    0.39195739529202

10 0
 s    3 1.00
             71.616837    0.15432897000916
             13.045096    0.53532814003178
             3.5305122     0.4446345400264
 s    3 1.00
             2.9412494  -0.099967230075964
             0.6834831    0.39951283030359
             0.2222899    0.70011547053201
 p    3 1.00
             2.9412494    0.15591627210511
             0.6834831    0.60768372820466
             0.2222899    0.39195739529202

11 0
 s    3 1.00
             71.616837    0.15432897000916
             13.045096    0.53532814003178
             3.5305122     0.4446345400264
 s    3 1.00
             2.9412494  -0.099967230075964
             0.6834831    0.39951283030359
             0.2222899    0.70011547053201
 p    3 1.00
             2.9412494    0.15591627210511
             0.6834831    0.60768372820466
             0.2222899    0.39195739529202

12 0
 s    3 1.00
             71.616837    0.15432897000916
             13.045096    0.53532814003178
             3.5305122     0.4446345400264
 s    3 1.00
             2.9412494  -0.099967230075964
             0.6834831    0.39951283030359
             0.2222899    0.70011547053201
 p    3 1.00
             2.9412494    0.15591627210511
             0.6834831    0.60768372820466
             0.2222899    0.39195739529202

13 0
 s    3 1.00
             71.616837    0.15432897000916
             13.045096    0.53532814003178
             3.5305122     0.4446345400264
 s    3 1.00
             2.9412494  -0.099967230075964
             0.6834831    0.39951283030359
             0.2222899    0.70011547053201
 p    3 1.00
             2.9412494    0.15591627210511
             0.6834831    0.60768372820466
             0.2222899    0.39195739529202

14 0
 s    3 1.00
             71.616837    0.15432897000916
             13.045096    0.53532814003178
             3.5305122     0.4446345400264
 s    3 1.00
             2.9412494  -0.099967230075964
             0.6834831    0.39951283030359
             0.2222899    0.70011547053201
 p    3 1.00
             2.9412494    0.15591627210511
             0.6834831    0.60768372820466
             0.2222899    0.39195739529202

15 0
 s    3 1.00
             71.616837    0.15432897000916
             13.045096    0.53532814003178
             3.5305122     0.4446345400264
 s    3 1.00
             2.9412494  -0.099967230075964
             0.6834831    0.39951283030359
             0.2222899    0.70011547053201
 p    3 1.00
             2.9412494    0.15591627210511
             0.6834831    0.60768372820466
             0.2222899    0.39195739529202

16 0
 s    3 1.00
             71.616837    0.15432897000916
             13.045096    0.53532814003178
             3.5305122     0.4446345400264
 s    3 1.00
             2.9412494  -0.099967230075964
             0.6834831    0.39951283030359
             0.2222899    0.70011547053201
 p    3 1.00
             2.9412494    0.15591627210511
             0.6834831    0.60768372820466
             0.2222899    0.39195739529202

17 0
 s    3 1.00
             71.616837    0.15432897000916
             13.045096    0.53532814003178
             3.5305122     0.4446345400264
 s    3 1.00
             2.9412494  -0.099967230075964
             0.6834831    0.39951283030359
             0.2222899    0.70011547053201
 p    3 1.00
             2.9412494    0.15591627210511
             0.6834831    0.60768372820466
             0.2222899    0.39195739529202

18 0
 s    3 1.00
             71.616837    0.15432897000916
             13.045096    0.53532814003178
             3.5305122     0.4446345400264
 s    3 1.00
             2.9412494  -0.099967230075964
             0.6834831    0.39951283030359
             0.2222899    0.70011547053201
 p    3 1.00
             2.9412494    0.15591627210511
             0.6834831    0.60768372820466
             0.2222899    0.39195739529202

19 0
 s    3 1.00
             71.616837    0.15432897000916
             13.045096    0.53532814003178
             3.5305122     0.4446345400264
 s    3 1.00
             2.9412494  -0.099967230075964
             0.6834831    0.39951283030359
             0.2222899    0.70011547053201
 p    3 1.00
             2.9412494    0.15591627210511
             0.6834831    0.60768372820466
             0.2222899    0.39195739529202

20 0
 s    3 1.00
             71.616837    0.15432897000916
             13.045096    0.53532814003178
             3.5305122     0.4446345400264
 s    3 1.00
             2.9412494  -0.099967230075964
             0.6834831    0.39951283030359
             0.2222899    0.70011547053201
 p    3 1.00
             2.9412494    0.15591627210511
             0.6834831    0.60768372820466
             0.2222899    0.39195739529202

21 0
 s    3 1.00
             71.616837    0.15432897000916
             13.045096    0.53532814003178
             3.5305122     0.4446345400264
 s    3 1.00
             2.9412494  -0.099967230075964
             0.6834831    0.39951283030359
             0.2222899    0.70011547053201
 p    3 1.00
             2.9412494    0.15591627210511
             0.6834831    0.60768372820466
             0.2222899    0.39195739529202

22 0
 s    3 1.00
             71.616837    0.15432897000916
             13.045096    0.53532814003178
             3.5305122     0.4446345400264
 s    3 1.00
             2.9412494  -0.099967230075964
             0.6834831    0.39951283030359
             0.2222899    0.70011547053201
 p    3 1.00
             2.9412494    0.15591627210511
             0.6834831    0.60768372820466
             0.2222899    0.39195739529202

23 0
 s    3 1.00
             71.616837    0.15432897000916
             13.045096    0.53532814003178
             3.5305122     0.4446345400264
 s    3 1.00
             2.9412494  -0.099967230075964
             0.6834831    0.39951283030359
             0.2222899    0.70011547053201
 p    3 1.00
             2.9412494    0.15591627210511
             0.6834831    0.60768372820466
             0.2222899    0.39195739529202

24 0
 s    3 1.00
             71.616837    0.15432897000916
             13.045096    0.53532814003178
             3.5305122     0.4446345400264
 s    3 1.00
             2.9412494  -0.099967230075964
             0.6834831    0.39951283030359
             0.2222899    0.70011547053201
 p    3 1.00
             2.9412494    0.15591627210511
             0.6834831    0.60768372820466
             0.2222899    0.39195739529202

25 0
 s    3 1.00
             71.616837    0.15432897000916
             13.045096    0.53532814003178
             3.5305122     0.4446345400264
 s    3 1.00
             2.9412494  -0.099967230075964
             0.6834831    0.39951283030359
             0.2222899    0.70011547053201
 p    3 1.00
             2.9412494    0.15591627210511
             0.6834831    0.60768372820466
             0.2222899    0.39195739529202

26 0
 s    3 1.00
             71.616837    0.15432897000916
             13.045096    0.53532814003178
             3.5305122     0.4446345400264
 s    3 1.00
             2.9412494  -0.099967230075964
             0.6834831    0.39951283030359
             0.2222899    0.70011547053201
 p    3 1.00
             2.9412494    0.15591627210511
             0.6834831    0.60768372820466
             0.2222899    0.39195739529202

27 0
 s    3 1.00
             71.616837    0.15432897000916
             13.045096    0.53532814003178
             3.5305122     0.4446345400264
 s    3 1.00
             2.9412494  -0.099967230075964
             0.6834831    0.39951283030359
             0.2222899    0.70011547053201
 p    3 1.00
             2.9412494    0.15591627210511
             0.6834831    0.60768372820466
             0.2222899    0.39195739529202

28 0
 s    3 1.00
             71.616837    0.15432897000916
             13.045096    0.53532814003178
             3.5305122     0.4446345400264
 s    3 1.00
             2.9412494  -0.099967230075964
             0.6834831    0.39951283030359
             0.2222899    0.70011547053201
 p    3 1.00
             2.9412494    0.15591627210511
             0.6834831    0.60768372820466
             0.2222899    0.39195739529202

29 0
 s    3 1.00
             71.616837    0.15432897000916
             13.045096    0.53532814003178
             3.5305122     0.4446345400264
 s    3 1.00
             2.9412494  -0.099967230075964
             0.6834831    0.39951283030359
             0.2222899    0.70011547053201
 p    3 1.00
             2.9412494    0.15591627210511
             0.6834831    0.60768372820466
             0.2222899    0.39195739529202

30 0
 s    3 1.00
             71.616837    0.15432897000916
             13.045096    0.53532814003178
             3.5305122     0.4446345400264
 s    3 1.00
             2.9412494  -0.099967230075964
             0.6834831    0.39951283030359
             0.2222899    0.70011547053201
 p    3 1.00
             2.9412494    0.15591627210511
             0.6834831    0.60768372820466
             0.2222899    0.39195739529202

31 0
 s    3 1.00
             71.616837    0.15432897000916
             13.045096    0.53532814003178
             3.5305122     0.4446345400264
 s    3 1.00
             2.9412494  -0.099967230075964
             0.6834831    0.39951283030359
             0.2222899    0.70011547053201
 p    3 1.00
             2.9412494    0.15591627210511
             0.6834831    0.60768372820466
             0.2222899    0.39195739529202

32 0
 s    3 1.00
             71.616837    0.15432897000916
             13.045096    0.53532814003178
             3.5305122     0.4446345400264
 s    3 1.00
             2.9412494  -0.099967230075964
             0.6834831    0.39951283030359
             0.2222899    0.70011547053201
 p    3 1.00
             2.9412494    0.15591627210511
             0.6834831    0.60768372820466
             0.2222899    0.39195739529202

33 0
 s    3 1.00
             71.616837    0.15432897000916
             13.045096    0.53532814003178
             3.5305122     0.4446345400264
 s    3 1.00
             2.9412494  -0.099967230075964
             0.6834831    0.39951283030359
             0.2222899    0.70011547053201
 p    3 1.00
             2.9412494    0.15591627210511
             0.6834831    0.60768372820466
             0.2222899    0.39195739529202

34 0
 s    3 1.00
             71.616837    0.15432897000916
             13.045096    0.53532814003178
             3.5305122     0.4446345400264
 s    3 1.00
             2.9412494  -0.099967230075964
             0.6834831    0.39951283030359
             0.2222899    0.70011547053201
 p    3 1.00
             2.9412494    0.15591627210511
             0.6834831    0.60768372820466
             0.2222899    0.39195739529202

35 0
 s    3 1.00
             71.616837    0.15432897000916
             13.045096    0.53532814003178
             3.5305122     0.4446345400264
 s    3 1.00
             2.9412494  -0.099967230075964
             0.6834831    0.39951283030359
             0.2222899    0.70011547053201
 p    3 1.00
             2.9412494    0.15591627210511
             0.6834831    0.60768372820466
             0.2222899    0.39195739529202

36 0
 s    3 1.00
             71.616837    0.15432897000916
             13.045096    0.53532814003178
             3.5305122     0.4446345400264
 s    3 1.00
             2.9412494  -0.099967230075964
             0.6834831    0.39951283030359
             0.2222899    0.70011547053201
 p    3 1.00
             2.9412494    0.15591627210511
             0.6834831    0.60768372820466
             0.2222899    0.39195739529202

37 0
 s    3 1.00
             71.616837    0.15432897000916
             13.045096    0.53532814003178
             3.5305122     0.4446345400264
 s    3 1.00
             2.9412494  -0.099967230075964
             0.6834831    0.39951283030359
             0.2222899    0.70011547053201
 p    3 1.00
             2.9412494    0.15591627210511
             0.6834831    0.60768372820466
             0.2222899    0.39195739529202

38 0
 s    3 1.00
             71.616837    0.15432897000916
             13.045096    0.53532814003178
             3.5305122     0.4446345400264
 s    3 1.00
             2.9412494  -0.099967230075964
             0.6834831    0.39951283030359
             0.2222899    0.70011547053201
 p    3 1.00
             2.9412494    0.15591627210511
             0.6834831    0.60768372820466
             0.2222899    0.39195739529202

39 0
 s    3 1.00
             71.616837    0.15432897000916
             13.045096    0.53532814003178
             3.5305122     0.4446345400264
 s    3 1.00
             2.9412494  -0.099967230075964
             0.6834831    0.39951283030359
             0.2222899    0.70011547053201
 p    3 1.00
             2.9412494    0.15591627210511
             0.6834831    0.60768372820466
             0.2222899    0.39195739529202

40 0
 s    3 1.00
             71.616837    0.15432897000916
             13.045096    0.53532814003178
             3.5305122     0.4446345400264
 s    3 1.00
             2.9412494  -0.099967230075964
             0.6834831    0.39951283030359
             0.2222899    0.70011547053201
 p    3 1.00
             2.9412494    0.15591627210511
             0.6834831    0.60768372820466
             0.2222899    0.39195739529202

41 0
 s    3 1.00
             71.616837    0.15432897000916
             13.045096    0.53532814003178
             3.5305122     0.4446345400264
 s    3 1.00
             2.9412494  -0.099967230075964
             0.6834831    0.39951283030359
             0.2222899    0.70011547053201
 p    3 1.00
             2.9412494    0.15591627210511
             0.6834831    0.60768372820466
             0.2222899    0.39195739529202

42 0
 s    3 1.00
             71.616837    0.15432897000916
             13.045096    0.53532814003178
             3.5305122     0.4446345400264
 s    3 1.00
             2.9412494  -0.099967230075964
             0.6834831    0.39951283030359
             0.2222899    0.70011547053201
 p    3 1.00
             2.9412494    0.15591627210511
             0.6834831    0.60768372820466
             0.2222899    0.39195739529202

43 0
 s    3 1.00
            3.42525091    0.15432897070298
            0.62391373    0.53532814243847
             0.1688554    0.44463454202535

44 0
 s    3 1.00
            3.42525091    0.15432897070298
            0.62391373    0.53532814243847
             0.1688554    0.44463454202535

45 0
 s    3 1.00
            3.42525091    0.15432897070298
            0.62391373    0.53532814243847
             0.1688554    0.44463454202535

46 0
 s    3 1.00
            3.42525091    0.15432897070298
            0.62391373    0.53532814243847
             0.1688554    0.44463454202535

47 0
 s    3 1.00
            3.42525091    0.15432897070298
            0.62391373    0.53532814243847
             0.1688554    0.44463454202535

48 0
 s    3 1.00
            3.42525091    0.15432897070298
            0.62391373    0.53532814243847
             0.1688554    0.44463454202535

49 0
 s    3 1.00
            3.42525091    0.15432897070298
            0.62391373    0.53532814243847
             0.1688554    0.44463454202535

50 0
 s    3 1.00
            3.42525091    0.15432897070298
            0.62391373    0.53532814243847
             0.1688554    0.44463454202535

51 0
 s    3 1.00
            3.42525091    0.15432897070298
            0.62391373    0.53532814243847
             0.1688554    0.44463454202535

52 0
 s    3 1.00
            3.42525091    0.15432897070298
            0.62391373    0.53532814243847
             0.1688554    0.44463454202535

53 0
 s    3 1.00
            3.42525091    0.15432897070298
            0.62391373    0.53532814243847
             0.1688554    0.44463454202535

54 0
 s    3 1.00
            3.42525091    0.15432897070298
            0.62391373    0.53532814243847
             0.1688554    0.44463454202535

55 0
 s    3 1.00
            3.42525091    0.15432897070298
            0.62391373    0.53532814243847
             0.1688554    0.44463454202535

56 0
 s    3 1.00
            3.42525091    0.15432897070298
            0.62391373    0.53532814243847
             0.1688554    0.44463454202535

57 0
 s    3 1.00
            3.42525091    0.15432897070298
            0.62391373    0.53532814243847
             0.1688554    0.44463454202535

58 0
 s    3 1.00
            3.42525091    0.15432897070298
            0.62391373    0.53532814243847
             0.1688554    0.44463454202535

59 0
 s    3 1.00
            3.42525091    0.15432897070298
            0.62391373    0.53532814243847
             0.1688554    0.44463454202535

60 0
 s    3 1.00
            3.42525091    0.15432897070298
            0.62391373    0.53532814243847
             0.1688554    0.44463454202535

[5d]
[7f]
[9g]

[MO]
 Sym= A
 Ene=               0
 Spin= Alpha
 Occup=    1.00000
   1    -0.00017595404417744
   2    0.0010798527973502
   3    -0.00055284120996513
   4    1.9052043369458e-05
   5       1.0504315356812
   6    -1.4535689867296e-06
   7    3.5231580641093e-05
   8    -0.00029063091067712
   9    0.00097115946384619
  10     -0.10951863249108
  11    -6.2166170809296e-05
  12    0.00041387518894046
  13    0.00046819770846823
  14    0.00038761516288847
  15     -0.10949044342814
  16    4.4633780334779e-05
  17    -0.00030584233183069
  18    0.00022498227832839
  19    0.00067269240658417
  20    0.0056273928878912
  21    -4.0180816389196e-05
  22    0.00019038681520247
  23    -5.3914433628431e-05
  24    0.0010787915768008
  25    0.0056259518513127
  26    8.2491694731556e-05
  27    -0.00052883008315826
  28    -0.00036616699726744
  29    0.00038589452799561
  30    -0.0033849760694767
  31    -0.00012485452823345
  32    0.00081228728617686
  33    -0.00060170952388101
  34    -0.00058968999809933
  35     -0.10941230953235
  36    -8.4715716509511e-05
  37    0.00053470451073639
  38    -0.0005665744350811
  39     0.000646835399789
  40    0.0056259357105415
  41    -5.4944615406756e-05
  42    0.0003683358166234
  43    0.00031065259783146
  44    7.8948818673666e-05
  45    0.0056216973887955
  46    0.00011204057685153
  47    -0.00070841829534123
  48    0.00024829216894015
  49    0.00013270470326846
  50    0.00038868396914725
  51    0.0001452104194722
  52    -0.00086991157738168
  53    -0.00050388039778453
  54    0.0007154625766223
  55    0.00038768270067307
  56    0.00019895159968798
  57    -0.0012307548049895
  58    -0.00061778152983443
  59    -0.00011046660231157
  60    0.00042136135300289
  61    -3.4146113436007e-05
  62    0.00022401696344565
  63    -0.00020058956570847
  64    -0.0010503023175792
  65    0.0056137406916959
  66    0.00024610669768979
  67    -0.0015199178482348
  68    -0.00017554581471267
  69    0.00035891477992149
  70    0.00038045519533299
  71    7.7709547897442e-05
  72    -0.00049569066181368
  73    -0.00069582188711067
  74    -0.00063885848176397
  75    0.0056141138374706
  76    -0.0002240944918442
  77    0.0013875233142542
  78    -0.00074380663279773
  79    -0.00028217505478001
  80    -0.0033786742072623
  81    0.00016837118418921
  82    -0.001047838110498
  83    0.00033200348590365
  84    6.4148059069882e-05
  85    0.00038248805074946
  86    0.00013745574610292
  87    -0.00082357097924558
  88    0.00016178897962583
  89    -0.00064359343552968
  90    -0.00011943299534332
  91    -0.00016935968952803
  92    0.0010336763223951
  93    0.00034240821147785
  94    -0.00063687664687313
  95    -0.0033738257295716
  96    -0.00017684273260158
  97    0.0010926631625215
  98    0.00020804856578585
  99    1.865012823896e-05
 100    0.00025400406521787
 101    0.00017547372036256
 102    -0.0011033137386804
 103    -0.00072907547978767
 104    -3.0409665682678e-05
 105    -0.0001177347537663
 106    -0.00010613733446936
 107    0.00065483457105866
 108    -0.00091050495513058
 109    -0.00048581464732463
 110    -3.2090754362312e-05
 111    -0.00027610971997943
 112    0.0016541610366243
 113    -0.00014208435410053
 114    0.00044217192124333
 115    0.00025472504696912
 116    2.7991668527489e-05
 117    -0.00017488005232495
 118    -0.00011228551231739
 119    -0.00095107482403895
 120    -3.0588722468703e-05
 121    0.00029681620527883
 122    -0.0018728285373553
 123    -0.00063437188292396
 124    2.2962237611354e-05
 125    0.00042423825949998
 126    -0.00020040105871541
 127    0.0012462846765888
 128    1.6029411278865e-05
 129    0.00037027911707165
 130    -0.00011510038871162
 131    0.00017625547532913
 132    -0.0010812745266121
 133    -4.8005830753513e-05
 134    -0.0002612355696487
 135    0.00042391030381544
 136    0.00028560642231762
 137    -0.0017671203544683
 138    -0.00076146325883503
 139    -3.7025580264788e-05
 140    0.00042385067417764
 141    8.2060633928079e-06
 142    -8.3509222918986e-05
 143    -0.00076436795757694
 144    0.00020248048322696
 145    -0.0001161395003532
 146    -0.00029718370936556
 147    0.0018600440600866
 148    0.00037553374783179
 149    6.6329479856091e-05
 150    1.3211503144726e-05
 151    0.00036034044739192
 152    -0.0022472545083851
 153    0.00040402549731411
 154    0.00016007879323654
 155    0.00042234395000776
 156    -2.6946022025037e-06
 157    1.0976995865589e-05
 158    -0.000533928291256
 159    0.00022739185750124
 160    -5.5196566467056e-05
 161    -0.00023505847894157
 162    0.0014737683186295
 163    -0.00080042442648422
 164    8.0993979191922e-05