[Molden Format]
made by pyscf v[2.2.1]
[Atoms] (AU)
He   1   2     0.00000000000000     0.00000000000000     0.00000000000000
He   2   2     0.00000000000000     3.77945224913012     0.00000000000000
He   3   2     3.77945224913012     0.00000000000000     0.00000000000000
He   4   2     3.77945224913012     3.77945224913012     0.00000000000000
He   5   2     0.00000000000000     0.00000000000000     9.44863062282531
He   6   2     0.00000000000000     3.77945224913012     9.44863062282531
He   7   2     3.77945224913012     0.00000000000000     9.44863062282531
He   8   2     3.77945224913012     3.77945224913012     9.44863062282531
[GTO]
1 0
 s    3 1.00
             38.421634   0.040139739345788
               5.77803    0.26124609704061
              1.241774    0.79318462463025
 s    1 1.00
              0.297964                   1

2 0
 s    3 1.00
             38.421634   0.040139739345788
               5.77803    0.26124609704061
              1.241774    0.79318462463025
 s    1 1.00
              0.297964                   1

3 0
 s    3 1.00
             38.421634   0.040139739345788
               5.77803    0.26124609704061
              1.241774    0.79318462463025
 s    1 1.00
              0.297964                   1

4 0
 s    3 1.00
             38.421634   0.040139739345788
               5.77803    0.26124609704061
              1.241774    0.79318462463025
 s    1 1.00
              0.297964                   1

5 0
 s    3 1.00
             38.421634   0.040139739345788
               5.77803    0.26124609704061
              1.241774    0.79318462463025
 s    1 1.00
              0.297964                   1

6 0
 s    3 1.00
             38.421634   0.040139739345788
               5.77803    0.26124609704061
              1.241774    0.79318462463025
 s    1 1.00
              0.297964                   1

7 0
 s    3 1.00
             38.421634   0.040139739345788
               5.77803    0.26124609704061
              1.241774    0.79318462463025
 s    1 1.00
              0.297964                   1

8 0
 s    3 1.00
             38.421634   0.040139739345788
               5.77803    0.26124609704061
              1.241774    0.79318462463025
 s    1 1.00
              0.297964                   1

[5d]
[7f]
[9g]

[MO]
 Sym= A
 Ene=               0
 Spin= Alpha
 Occup=    1.00000
   1       0.2849217985603
   2      0.24461722262969
   3      0.28492179856031
   4       0.2446172226297
   5       0.2849217985603
   6      0.24461722262969
   7       0.2849217985603
   8      0.24461722262969
   9    -8.8138882211657e-07
  10    6.6968554198987e-07
  11    -8.8138882205872e-07
  12    6.6968554208384e-07
  13    -8.8138882219684e-07
  14    6.6968554193823e-07
  15    -8.81388822089e-07
  16    6.6968554174586e-07
 Sym= A
 Ene=               1
 Spin= Alpha
 Occup=    1.00000
   1     -0.41591609152565
   2     -0.35982337777614
   3     0.058650777071256
   4     0.050740813219228
   5    -0.058650777071243
   6    -0.050740813219218
   7      0.41591609152563
   8      0.35982337777612
   9    1.1207253613441e-06
  10    -9.944193830209e-07
  11    -1.5804008246627e-07
  12    1.4022893224729e-07
  13    1.5804008239909e-07
  14    -1.4022893289853e-07
  15    -1.1207253623134e-06
  16    9.9441938376027e-07
 Sym= A
 Ene=               2
 Spin= Alpha
 Occup=    1.00000
   1    -0.058650777071248
   2    -0.050740813219222
   3     -0.41591609152564
   4     -0.35982337777613
   5      0.41591609152564
   6      0.35982337777613
   7      0.05865077707125
   8     0.050740813219224
   9    1.5804008292673e-07
  10    -1.4022893316539e-07
  11     1.12072536186e-06
  12    -9.9441938329847e-07
  13    -1.120725362197e-06
  14    9.9441938333081e-07
  15    -1.5804008311036e-07
  16    1.4022893293556e-07
 Sym= A
 Ene=               3
 Spin= Alpha
 Occup=    1.00000
   1      0.30707170508497
   2      0.27039171218251
   3     -0.30707170508498
   4     -0.27039171218252
   5     -0.30707170508498
   6     -0.27039171218252
   7      0.30707170508499
   8      0.27039171218253
   9    -7.2791667163304e-07
  10    7.4656787484127e-07
  11    7.2791667162175e-07
  12    -7.4656787485916e-07
  13    7.2791667164797e-07
  14    -7.4656787493027e-07
  15    -7.2791667138054e-07
  16    7.4656787499838e-07
 Sym= A
 Ene=               4
 Spin= Alpha
 Occup=    1.00000
   1     -0.55734981457249
   2      0.50308722439072
   3     -0.55734981457248
   4      0.50308722439071
   5     -0.55734981457249
   6      0.50308722439071
   7     -0.55734981457248
   8       0.5030872243907
   9    -1.1689078031407e-07
  10    -1.1413431084505e-06
  11    -1.1689077955892e-07
  12    -1.141343109094e-06
  13    -1.1689077924628e-07
  14    -1.1413431093519e-06
  15    -1.1689077955259e-07
  16    -1.1413431090293e-06
 Sym= A
 Ene=               5
 Spin= Alpha
 Occup=    1.00000
   1     -0.16518450635928
   2      0.17203971544038
   3      0.79979361511869
   4     -0.83298530224611
   5     -0.79979361511869
   6       0.8329853022461
   7      0.16518450635928
   8     -0.17203971544038
   9    2.2286324501624e-09
  10    -3.7385285873532e-07
  11    -1.0790635557695e-08
  12    1.8101281733521e-06
  13    1.079063535616e-08
  14    -1.8101281735089e-06
  15    -2.2286326286956e-09
  16    3.7385285817345e-07
 Sym= A
 Ene=               6
 Spin= Alpha
 Occup=    1.00000
   1      0.79979361511869
   2      -0.8329853022461
   3      0.16518450635927
   4     -0.17203971544038
   5     -0.16518450635928
   6      0.17203971544039
   7     -0.79979361511869
   8       0.8329853022461
   9    -1.0790635739235e-08
  10    1.810128174124e-06
  11    -2.2286328587051e-09
  12    3.7385285866359e-07
  13    2.2286325478727e-09
  14    -3.7385285812089e-07
  15    1.0790636037361e-08
  16    -1.8101281740495e-06
 Sym= A
 Ene=               7
 Spin= Alpha
 Occup=    1.00000
   1      0.60579564805878
   2     -0.72192814596611
   3     -0.60579564805878
   4      0.72192814596611
   5     -0.60579564805878
   6      0.72192814596612
   7      0.60579564805878
   8     -0.72192814596612
   9    -1.6900134119437e-07
  10    1.5500275323657e-06
  11    1.6900134105949e-07
  12    -1.5500275325214e-06
  13    1.6900134112149e-07
  14    -1.5500275325008e-06
  15    -1.6900134077499e-07
  16    1.5500275319072e-06
 Sym= A
 Ene=               8
 Spin= Alpha
 Occup=    0.00000
   1    -8.8138882175539e-07
   2    6.6968554176453e-07
   3    -8.8138882224852e-07
   4    6.6968554173978e-07
   5    -8.8138882178049e-07
   6    6.696855415463e-07
   7    -8.8138882232801e-07
   8    6.6968554181933e-07
   9      0.28492179856031
  10       0.2446172226297
  11      0.28492179856031
  12       0.2446172226297
  13       0.2849217985603
  14      0.24461722262969
  15      0.28492179856029
  16      0.24461722262969
 Sym= A
 Ene=               9
 Spin= Alpha
 Occup=    0.00000
   1    -1.103271746917e-06
   2    9.7893279447871e-07
   3    -2.5257366626677e-07
   4    2.2410856237867e-07
   5    2.5257366657277e-07
   6    -2.2410856202601e-07
   7    1.103271746894e-06
   8    -9.7893279448752e-07
   9      0.40943882282511
  10      0.35421966887889
  11     0.093733447629995
  12     0.081092043380938
  13    -0.093733447630005
  14    -0.081092043380945
  15     -0.40943882282512
  16      -0.3542196688789
 Sym= A
 Ene=              10
 Spin= Alpha
 Occup=    0.00000
   1    2.5257366593023e-07
   2    -2.2410856182078e-07
   3    -1.1032717476021e-06
   4    9.7893279489031e-07
   5    1.1032717471605e-06
   6    -9.7893279478114e-07
   7    -2.5257366615086e-07
   8    2.2410856174293e-07
   9    -0.093733447630002
  10    -0.081092043380943
  11      0.40943882282512
  12       0.3542196688789
  13     -0.40943882282512
  14      -0.3542196688789
  15     0.093733447629998
  16     0.081092043380939
 Sym= A
 Ene=              11
 Spin= Alpha
 Occup=    0.00000
   1    7.2791667112295e-07
   2    -7.4656787423757e-07
   3    -7.2791667115536e-07
   4    7.465678745014e-07
   5    -7.279166710006e-07
   6    7.465678742482e-07
   7    7.2791667095566e-07
   8    -7.465678739819e-07
   9     -0.30707170508498
  10     -0.27039171218252
  11      0.30707170508498
  12      0.27039171218252
  13      0.30707170508498
  14      0.27039171218252
  15     -0.30707170508498
  16     -0.27039171218252
 Sym= A
 Ene=              12
 Spin= Alpha
 Occup=    0.00000
   1    1.1689077947474e-07
   2    1.1413431094231e-06
   3    1.1689077961605e-07
   4    1.1413431092116e-06
   5    1.1689077972011e-07
   6    1.1413431089353e-06
   7    1.168907797336e-07
   8    1.1413431087882e-06
   9       0.5573498145725
  10     -0.50308722439072
  11      0.55734981457248
  12     -0.50308722439071
  13      0.55734981457249
  14     -0.50308722439072
  15      0.55734981457248
  16      -0.5030872243907
 Sym= A
 Ene=              13
 Spin= Alpha
 Occup=    0.00000
   1    -4.8057212522715e-09
   2    8.0615934809965e-07
   3    9.9151228151455e-09
   4    -1.6632609747638e-06
   5    -9.915122524746e-09
   6    1.663260974565e-06
   7    4.8057216112811e-09
   8    -8.0615934842716e-07
   9      0.35619637818716
  10     -0.37097864015727
  11     -0.73490127778644
  12      0.76539991246009
  13      0.73490127778642
  14     -0.76539991246007
  15     -0.35619637818717
  16      0.37097864015728
 Sym= A
 Ene=              14
 Spin= Alpha
 Occup=    0.00000
   1    -9.9151232627751e-09
   2    1.6632609752175e-06
   3    -4.8057211495259e-09
   4    8.0615934739304e-07
   5    4.805721816243e-09
   6    -8.0615934801848e-07
   7    9.9151234387864e-09
   8    -1.6632609751796e-06
   9      0.73490127778643
  10     -0.76539991246009
  11      0.35619637818715
  12     -0.37097864015726
  13     -0.35619637818718
  14      0.37097864015729
  15     -0.73490127778643
  16      0.76539991246007
 Sym= A
 Ene=              15
 Spin= Alpha
 Occup=    0.00000
   1    1.6900134099577e-07
   2    -1.5500275322929e-06
   3    -1.6900134121861e-07
   4    1.5500275322871e-06
   5    -1.69001341636e-07
   6    1.5500275323293e-06
   7    1.690013409634e-07
   8    -1.5500275315625e-06
   9     -0.60579564805877
  10       0.7219281459661
  11      0.60579564805878
  12     -0.72192814596612
  13      0.60579564805878
  14     -0.72192814596611
  15     -0.60579564805879
  16      0.72192814596613
