[Molden Format]
made by pyscf v[2.3.0]
[Atoms] (AU)
He   1   2     0.99089679067694    -1.71626816359123     1.42082838127673
He   2   2     0.99089679067694     1.71626816359123     1.42082838127673
He   3   2    -1.98177468409263     0.00000000000000     1.42082838127673
He   4   2    -1.98177468409263     0.00000000000000    -1.42082838127673
He   5   2     0.99089679067694     1.71626816359123    -1.42082838127673
He   6   2     0.99089679067694    -1.71626816359123    -1.42082838127673
He   7   2     0.00000000000000     0.00000000000000     4.22253633355689
He   8   2     0.00000000000000     0.00000000000000    -4.22253633355689
[GTO]
1 0
 s    3 1.00
                 38.36   0.040176075383249
                  5.77    0.26136807476949
                  1.24    0.79307123949544
 s    1 1.00
                0.2976                   1
 p    1 1.00
                 1.275                   1

2 0
 s    3 1.00
                 38.36   0.040176075383249
                  5.77    0.26136807476949
                  1.24    0.79307123949544
 s    1 1.00
                0.2976                   1
 p    1 1.00
                 1.275                   1

3 0
 s    3 1.00
                 38.36   0.040176075383249
                  5.77    0.26136807476949
                  1.24    0.79307123949544
 s    1 1.00
                0.2976                   1
 p    1 1.00
                 1.275                   1

4 0
 s    3 1.00
                 38.36   0.040176075383249
                  5.77    0.26136807476949
                  1.24    0.79307123949544
 s    1 1.00
                0.2976                   1
 p    1 1.00
                 1.275                   1

5 0
 s    3 1.00
                 38.36   0.040176075383249
                  5.77    0.26136807476949
                  1.24    0.79307123949544
 s    1 1.00
                0.2976                   1
 p    1 1.00
                 1.275                   1

6 0
 s    3 1.00
                 38.36   0.040176075383249
                  5.77    0.26136807476949
                  1.24    0.79307123949544
 s    1 1.00
                0.2976                   1
 p    1 1.00
                 1.275                   1

7 0
 s    3 1.00
                 38.36   0.040176075383249
                  5.77    0.26136807476949
                  1.24    0.79307123949544
 s    1 1.00
                0.2976                   1
 p    1 1.00
                 1.275                   1

8 0
 s    3 1.00
                 38.36   0.040176075383249
                  5.77    0.26136807476949
                  1.24    0.79307123949544
 s    1 1.00
                0.2976                   1
 p    1 1.00
                 1.275                   1

[5d]
[7f]
[9g]

[MO]
 Sym= A
 Ene=               0
 Spin= Alpha
 Occup=    1.00000
   1        1.239499251846
   2     -0.48771659258514
   3    0.0023646024476908
   4    -0.0040956327882942
   5    0.0066433757846625
   6    -0.009273973003613
   7     0.035021956455879
   8     0.002266939308357
   9    -0.019449288896162
  10    -0.001669715100573
  11    -0.0092739928557537
  12      0.03502172978123
  13     0.015709951979864
  14    -0.011687760713021
  15    -0.0016697249917939
  16    -0.0014565680970027
  17    -0.0012910363024461
  18    -1.5555916805615e-05
  19    1.5580471002791e-05
  20    -0.0016938270434057
  21    -0.0014565701936858
  22    -0.0012910631075082
  23    -5.7156847666876e-06
  24    2.1264286816118e-05
  25    -0.0016938203562984
  26    -0.0045115094099839
  27     0.058903191530277
  28    -1.0578857437976e-05
  29     1.83201765032e-05
  30     0.035325146961764
  31    -0.010565908858319
  32     0.037616295962126
  33    0.0068814801047046
  34     -0.01191898806706
  35    -0.014694564689728
  36    0.0028379380909734
  37    -0.0077161096701235
  38    -0.00092196452501456
  39    0.0015968774361605
  40    -0.0023175047243827
 Sym= A
 Ene=               1
 Spin= Alpha
 Occup=    1.00000
   1     -0.48771659258514
   2       1.3622832205983
   3     -0.00639602621626
   4      0.01107831767106
   5    -0.022713651668091
   6     0.035021956455878
   7     -0.11319330226142
   8    -0.0061971069691958
   9     0.040421458245424
  10    0.0057729826048877
  11     0.035021720864169
  12     -0.11319212981789
  13     -0.03190706188102
  14     0.025577334490182
  15    0.0057729932751032
  16    -0.0012910390128716
  17     0.017602613357346
  18    0.0035883394617602
  19    -0.0028808363948492
  20     0.006920047714162
  21    -0.0012910631075082
  22     0.017602856976769
  23    0.00070071054694602
  24    -0.0045480671683605
  25    0.0069200857069348
  26     0.058903191530278
  27     -0.24973131087663
  28    0.00073430700130938
  29    -0.0012718602643965
  30     -0.09011289130469
  31     0.037411645047199
  32     -0.11696978478734
  33    -0.015262828563555
  34     0.026435838726655
  35      0.02984139851971
  36    -0.0091566026085349
  37     0.026833088504899
  38      0.00360687750857
  39    -0.0062472576528597
  40    0.0076257155681985
 Sym= A
 Ene=               2
 Spin= Alpha
 Occup=    1.00000
   1    0.0023646024476908
   2     -0.00639602621626
   3       1.0016428647033
   4    -0.00074459713131923
   5    -0.00019826433583433
   6    0.0022669393083565
   7    -0.0061971069691958
   8    0.0013460208508456
   9    0.0007292439388544
  10    -0.00019960926075632
  11    -0.017976892551925
  12     0.038104186991561
  13    0.0031733434185933
  14    -0.0017842458534451
  15    -0.00092493759272982
  16    2.1271253970743e-05
  17    -0.0042890515322125
  18    -1.7431321145848e-05
  19    5.3945219530826e-06
  20    -0.0033541614946912
  21    -5.7156847674075e-06
  22    0.00070071054694617
  23    6.5930159565994e-06
  24    8.4758353463574e-06
  25    0.00044585061852895
  26    -1.0578857438695e-05
  27    0.00073430700130968
  28    -0.0029003329850401
  29    -7.9937169575292e-06
  30    0.00046407584921161
  31    -0.0042047099348694
  32    0.0078941282222487
  33    0.0012879711581301
  34    -0.0005995526976653
  35    -4.5900809895697e-05
  36    -0.00011301671546616
  37    0.00033286919183063
  38    -0.00015239710257038
  39    3.4535848118916e-06
  40    0.00011207400430799
 Sym= A
 Ene=               3
 Spin= Alpha
 Occup=    1.00000
   1    -0.0040956327882942
   2      0.01107831767106
   3    -0.00074459713131924
   4       1.0025026850333
   5    0.00034339613879343
   6     0.019449288896162
   7    -0.040421458245424
   8    -0.00072924393885679
   9    0.0037825586312431
  10    0.0011832687495033
  11    0.0077612899556427
  12    -0.014843568874587
  13    -0.00032573739550061
  14    0.0019551370455012
  15    0.00076449510047095
  16    -5.6832309978184e-06
  17      0.00166716798649
  18    2.234610422249e-05
  19    -1.4150485884885e-06
  20    0.0014216954470239
  21    -2.1264286815892e-05
  22    0.0045480671683606
  23    -8.4758353514513e-06
  24    -2.5439354404995e-05
  25    0.0036156776994212
  26    1.8320176504361e-05
  27    -0.0012718602643967
  28    -7.9937169573058e-06
  29    -0.0028911027761918
  30    -0.00080380607939079
  31    0.0072826732597117
  32    -0.013672829255029
  33    -0.00059954359334228
  34    0.0019802685488851
  35    7.948751270265e-05
  36    0.00019575274886191
  37    -0.000576550581757
  38    3.4524163840278e-06
  39    -0.00015638567522938
  40    -0.00019411852841978
 Sym= A
 Ene=               4
 Spin= Alpha
 Occup=    1.00000
   1    0.0066433757846625
   2    -0.022713651668091
   3    -0.00019826433583433
   4    0.00034339613879343
   5       1.0104985514637
   6    -0.0016697151005726
   7    0.0057729826048876
   8    -0.00019960926075625
   9    -0.0011832687495036
  10    0.0005918339401496
  11    -0.0016697231635193
  12    0.0057729961866749
  13     0.001124543842164
  14    -0.0004187669174461
  15    0.00059184678519935
  16    0.0016938267012343
  17    -0.0069200491890206
  18    -0.0029083113011108
  19    0.0021939340861278
  20    -0.00088628850741215
  21    0.0016938203562978
  22    -0.0069200857069346
  23    -0.00044585061852885
  24    0.0036156776994221
  25    -0.00088628427888394
  26    -0.035325146961763
  27      0.09011289130469
  28    -0.00046407584921129
  29    0.00080380607939043
  30     0.029295576511707
  31     0.015481589073724
  32    -0.031995146953673
  33    -0.00056416310489247
  34    0.00097714972378721
  35    0.0020946183986744
  36    0.0034137650313656
  37    -0.0099701862650509
  38    -0.0012879548337372
  39    0.0022307871097217
  40    -0.0027150004600599
 Sym= A
 Ene=               5
 Spin= Alpha
 Occup=    1.00000
   1    -0.009273973003613
   2     0.035021956455879
   3    0.0022669393083565
   4     0.019449288896162
   5    -0.0016697151005726
   6        1.239499251846
   7     -0.48771659258514
   8    0.0023646024476919
   9    0.0040956327882945
  10    0.0066433757846661
  11    -0.0092739928557532
  12     0.035021729781229
  13     0.015709951979863
  14      0.01168776071302
  15    -0.0016697249917919
  16    -0.0014565680970026
  17    -0.0012910363024463
  18    -1.5555916805269e-05
  19    -1.5580471004023e-05
  20    -0.0016938270434032
  21    -0.0045115094099831
  22     0.058903191530277
  23    -1.0578857437613e-05
  24    -1.8320176503417e-05
  25     0.035325146961768
  26    -0.0014565701936856
  27    -0.0012910631075088
  28    -5.7156847675908e-06
  29    -2.1264286816154e-05
  30    -0.0016938203562983
  31    -0.010565908858319
  32     0.037616295962127
  33    0.0068814801047048
  34     0.011918988067059
  35    -0.014694564689727
  36    0.0028379380909739
  37    -0.007716109670124
  38    -0.00092196452501454
  39    -0.0015968774361608
  40    -0.0023175047243818
 Sym= A
 Ene=               6
 Spin= Alpha
 Occup=    1.00000
   1     0.035021956455879
   2     -0.11319330226142
   3    -0.0061971069691958
   4    -0.040421458245424
   5    0.0057729826048876
   6     -0.48771659258514
   7       1.3622832205983
   8    -0.0063960262162602
   9     -0.01107831767106
  10    -0.022713651668091
  11     0.035021720864168
  12     -0.11319212981788
  13     -0.03190706188102
  14    -0.025577334490182
  15    0.0057729932751033
  16    -0.0012910390128719
  17     0.017602613357345
  18    0.0035883394617603
  19    0.0028808363948493
  20     0.006920047714162
  21     0.058903191530277
  22     -0.24973131087663
  23    0.0007343070013093
  24    0.0012718602643964
  25     -0.09011289130469
  26    -0.0012910631075087
  27     0.017602856976769
  28    0.00070071054694599
  29    0.0045480671683604
  30     0.006920085706935
  31     0.037411645047199
  32     -0.11696978478734
  33    -0.015262828563555
  34    -0.026435838726655
  35      0.02984139851971
  36    -0.0091566026085348
  37     0.026833088504899
  38      0.00360687750857
  39    0.0062472576528596
  40    0.0076257155681985
 Sym= A
 Ene=               7
 Spin= Alpha
 Occup=    1.00000
   1     0.002266939308357
   2    -0.0061971069691958
   3    0.0013460208508456
   4    -0.00072924393885677
   5    -0.00019960926075625
   6    0.0023646024476919
   7    -0.0063960262162602
   8       1.0016428647033
   9    0.00074459713132197
  10    -0.00019826433583356
  11    -0.017976892551925
  12     0.038104186991561
  13    0.0031733434185906
  14    0.0017842458534426
  15    -0.00092493759272915
  16    2.1271253970837e-05
  17    -0.0042890515322128
  18    -1.7431321143686e-05
  19    -5.3945219544215e-06
  20    -0.0033541614946916
  21    -1.0578857438402e-05
  22    0.00073430700130929
  23    -0.0029003329850399
  24    7.9937169569622e-06
  25    0.00046407584921085
  26    -5.715684767864e-06
  27    0.00070071054694606
  28    6.593015953524e-06
  29    -8.4758353458823e-06
  30    0.00044585061852909
  31    -0.004204709934869
  32    0.0078941282222485
  33    0.0012879711581295
  34    0.00059955269766187
  35    -4.5900809892407e-05
  36    -0.00011301671546644
  37    0.00033286919183032
  38    -0.00015239710256927
  39    -3.4535848137422e-06
  40    0.00011207400430672
 Sym= A
 Ene=               8
 Spin= Alpha
 Occup=    0.00000
   1    -0.019449288896162
   2     0.040421458245424
   3    0.00072924393885438
   4    0.0037825586312431
   5    -0.0011832687495036
   6    0.0040956327882945
   7     -0.01107831767106
   8    0.00074459713132197
   9       1.0025026850333
  10    -0.00034339613879245
  11    -0.0077612899556429
  12     0.014843568874587
  13    0.00032573739550118
  14    0.0019551370454979
  15    -0.00076449510047067
  16    5.6832309984796e-06
  17    -0.0016671679864901
  18    -2.2346104222168e-05
  19    -1.4150485936557e-06
  20    -0.0014216954470243
  21    -1.8320176503669e-05
  22    0.0012718602643966
  23    7.993716960826e-06
  24    -0.0028911027761926
  25    0.00080380607939038
  26    2.126428681592e-05
  27    -0.0045480671683605
  28    8.4758353497334e-06
  29    -2.54393544017e-05
  30    -0.003615677699421
  31    -0.0072826732597117
  32     0.013672829255029
  33    0.0005995435933422
  34    0.0019802685488816
  35    -7.9487512702071e-05
  36    -0.00019575274886211
  37    0.00057655058175683
  38    -3.4524163831561e-06
  39    -0.00015638567523159
  40    0.00019411852841348
 Sym= A
 Ene=               9
 Spin= Alpha
 Occup=    0.00000
   1    -0.001669715100573
   2    0.0057729826048877
   3    -0.00019960926075633
   4    0.0011832687495033
   5    0.00059183394014964
   6    0.0066433757846661
   7    -0.022713651668091
   8    -0.00019826433583356
   9    -0.00034339613879246
  10       1.0104985514637
  11    -0.0016697231635179
  12    0.0057729961866749
  13    0.0011245438421635
  14    0.00041876691744599
  15    0.00059184678518894
  16    0.0016938267012325
  17    -0.0069200491890205
  18    -0.0029083113011094
  19    -0.0021939340861272
  20    -0.00088628850742021
  21    -0.035325146961768
  22     0.090112891304689
  23    -0.00046407584921156
  24    -0.00080380607939045
  25     0.029295576511692
  26    0.0016938203562984
  27    -0.0069200857069349
  28    -0.00044585061852997
  29    -0.0036156776994198
  30    -0.00088628427888403
  31     0.015481589073727
  32    -0.031995146953673
  33    -0.00056416310489222
  34    -0.00097714972378744
  35    0.0020946183986732
  36    0.0034137650313636
  37    -0.0099701862650505
  38    -0.0012879548337374
  39    -0.0022307871097243
  40    -0.0027150004600632
 Sym= A
 Ene=              10
 Spin= Alpha
 Occup=    0.00000
   1    -0.0092739928557536
   2     0.035021720864169
   3    -0.017976892551925
   4    0.0077612899556427
   5    -0.0016697231635193
   6    -0.0092739928557532
   7     0.035021720864168
   8    -0.017976892551925
   9    -0.0077612899556429
  10    -0.0016697231635179
  11        1.239499229851
  12     -0.48771654030479
  13    -0.0047292046407229
  14    -7.2676291479069e-16
  15    0.0066433600175785
  16    -0.0045115208578634
  17     0.058903210897604
  18    2.1158053859204e-05
  19    -3.1402467619025e-16
  20     0.035325141290342
  21    -0.0014565680970023
  22    -0.0012910390128723
  23    2.1271253971007e-05
  24    5.6832309975057e-06
  25    -0.0016938267012328
  26    -0.0014565680970026
  27    -0.001291039012872
  28    2.1271253970702e-05
  29    -5.683230997592e-06
  30    -0.0016938267012343
  31    -0.010565917259554
  32     0.037616444309415
  33    -0.013762915796237
  34    -4.6176007988585e-16
  35    -0.014694668488632
  36    0.0028379441593002
  37    -0.0077161379637197
  38     0.001843922733877
  39    -2.2493948998496e-16
  40    -0.0023175189163409
 Sym= A
 Ene=              11
 Spin= Alpha
 Occup=    0.00000
   1      0.03502172978123
   2     -0.11319212981789
   3     0.038104186991561
   4    -0.014843568874587
   5    0.0057729961866749
   6     0.035021729781229
   7     -0.11319212981788
   8     0.038104186991561
   9     0.014843568874587
  10    0.0057729961866749
  11     -0.48771654030479
  12       1.3622830711324
  13      0.01279205918087
  14    1.2687610860736e-16
  15    -0.022713601006849
  16     0.058903210897604
  17     -0.24973133508212
  18    -0.0014686153792299
  19    -1.7686223086365e-16
  20    -0.090112874233498
  21    -0.0012910363024468
  22     0.017602613357346
  23    -0.0042890515322124
  24     -0.00166716798649
  25    0.0069200491890208
  26    -0.0012910363024466
  27     0.017602613357346
  28    -0.0042890515322125
  29      0.00166716798649
  30    0.0069200491890203
  31     0.037411800903505
  32     -0.11697045339038
  33     0.030525593611136
  34    1.1363360407827e-16
  35      0.02984166320226
  36    -0.0091566357908245
  37      0.02683322948278
  38    -0.0072137381893141
  39    -1.6286083977704e-17
  40    0.0076257773110644
 Sym= A
 Ene=              12
 Spin= Alpha
 Occup=    0.00000
   1     0.015709951979864
   2     -0.03190706188102
   3    0.0031733434185933
   4    -0.00032573739550062
   5    0.0011245438421639
   6     0.015709951979863
   7     -0.03190706188102
   8    0.0031733434185907
   9    0.0003257373955012
  10    0.0011245438421635
  11    -0.0047292046407229
  12      0.01279205918087
  13       1.0029325515649
  14    2.3168636498532e-15
  15    0.00039652993277162
  16    2.1158053859612e-05
  17    -0.0014686153792297
  18    -0.0028864875327222
  19    3.2387394583644e-15
  20    -0.0009281517497521
  21    -1.5555916805351e-05
  22      0.00358833946176
  23    -1.7431321144859e-05
  24    -2.2346104220954e-05
  25    0.0029083113011099
  26    -1.5555916804864e-05
  27    0.0035883394617602
  28    -1.7431321140229e-05
  29    2.2346104221336e-05
  30    0.0029083113011097
  31    0.0084093789371287
  32    -0.015788203450409
  33    0.0023264279863028
  34    7.9905227496189e-16
  35    9.1830167095007e-05
  36    0.00022603289656647
  37    -0.0006657346513964
  38    -0.00015837929059831
  39    1.9582159027167e-15
  40    -0.00022414576020763
 Sym= A
 Ene=              13
 Spin= Alpha
 Occup=    0.00000
   1    -0.011687760713021
   2     0.025577334490182
   3    -0.0017842458534451
   4    0.0019551370455012
   5    -0.00041876691744611
   6      0.01168776071302
   7    -0.025577334490182
   8    0.0017842458534425
   9    0.0019551370454979
  10     0.000418766917446
  11    -7.2676291480934e-16
  12    1.2687610860339e-16
  13    2.3168636500301e-15
  14       1.0012129632216
  15    -4.6047502075515e-16
  16    7.8024503260872e-17
  17    4.557014819235e-17
  18    -9.272304428985e-16
  19    -0.0029049481726571
  20    3.3700337838666e-16
  21    -1.5580471002978e-05
  22    0.0028808363948492
  23    -5.3945219538709e-06
  24    -1.4150485926724e-06
  25    0.0021939340861277
  26    1.5580471003576e-05
  27    -0.0028808363948492
  28    5.3945219537178e-06
  29    -1.4150485937608e-06
  30    -0.0021939340861275
  31    -2.5348847578119e-16
  32    6.5930922628535e-17
  33    -1.0643657745735e-15
  34    0.00094180467074636
  35    -2.9219214464115e-15
  36    2.1840558585671e-16
  37    -1.1982651086572e-16
  38    -3.3457082845045e-16
  39    -0.00015040223277533
  40    -2.5831822637084e-15
 Sym= A
 Ene=              14
 Spin= Alpha
 Occup=    0.00000
   1    -0.0016697249917939
   2    0.0057729932751032
   3    -0.00092493759272982
   4    0.00076449510047095
   5    0.00059184678519933
   6    -0.0016697249917919
   7    0.0057729932751033
   8    -0.00092493759272916
   9    -0.00076449510047067
  10    0.00059184678518897
  11    0.0066433600175785
  12    -0.022713601006849
  13    0.00039652993277161
  14    -4.604750208334e-16
  15       1.0104985628017
  16    -0.035325141290342
  17     0.090112874233498
  18    0.0009281517497525
  19    7.5597404485008e-16
  20     0.029295567998525
  21     0.001693827043403
  22    -0.0069200477141621
  23    0.0033541614946905
  24    0.0014216954470241
  25    -0.00088628850742039
  26    0.0016938270434057
  27    -0.0069200477141622
  28    0.0033541614946905
  29    -0.0014216954470225
  30    -0.00088628850741198
  31      0.01548166602078
  32    -0.031995317132583
  33    0.0011283384617066
  34    3.3829148227719e-17
  35     0.002094649810388
  36    0.0034137740933054
  37    -0.0099702290996614
  38    0.0025759013607656
  39    -1.4601924319782e-15
  40    -0.002715019784627
 Sym= A
 Ene=              15
 Spin= Alpha
 Occup=    0.00000
   1    -0.0014565680970026
   2    -0.0012910390128717
   3    2.1271253970742e-05
   4    -5.683230997817e-06
   5    0.0016938267012342
   6    -0.0014565680970026
   7    -0.0012910390128719
   8    2.1271253970842e-05
   9    5.6832309984806e-06
  10    0.0016938267012325
  11    -0.0045115208578634
  12     0.058903210897604
  13    2.1158053859608e-05
  14    7.8024503254785e-17
  15    -0.035325141290342
  16        1.239499229851
  17     -0.48771654030479
  18    -0.004729204640722
  19    9.3725750890794e-16
  20    -0.0066433600175785
  21    -0.0092739928557538
  22     0.035021720864168
  23    -0.017976892551926
  24    -0.0077612899556427
  25     0.001669723163518
  26    -0.0092739928557539
  27     0.035021720864169
  28    -0.017976892551925
  29     0.007761289955644
  30    0.0016697231635195
  31    0.0028379441593005
  32    -0.0077161379637198
  33    0.0018439227338764
  34    8.3403558027943e-17
  35     0.002317518916342
  36    -0.010565917259553
  37     0.037616444309415
  38    -0.013762915796236
  39    -1.1695823549273e-16
  40     0.014694668488632
 Sym= A
 Ene=              16
 Spin= Alpha
 Occup=    0.00000
   1    -0.0012910363024462
   2     0.017602613357346
   3    -0.0042890515322125
   4      0.00166716798649
   5    -0.0069200491890206
   6    -0.0012910363024463
   7     0.017602613357345
   8    -0.0042890515322128
   9    -0.0016671679864901
  10    -0.0069200491890205
  11     0.058903210897604
  12     -0.24973133508212
  13    -0.0014686153792297
  14    4.5570148190976e-17
  15     0.090112874233498
  16     -0.48771654030479
  17       1.3622830711324
  18      0.01279205918087
  19    1.2931380084469e-16
  20      0.02271360100685
  21      0.03502172978123
  22     -0.11319212981788
  23     0.038104186991561
  24     0.014843568874587
  25    -0.0057729961866751
  26      0.03502172978123
  27     -0.11319212981789
  28     0.038104186991561
  29    -0.014843568874587
  30    -0.0057729961866749
  31    -0.0091566357908244
  32      0.02683322948278
  33    -0.0072137381893141
  34    3.3398239429511e-17
  35    -0.0076257773110646
  36     0.037411800903504
  37     -0.11697045339038
  38     0.030525593611136
  39    4.6653417886567e-17
  40     -0.02984166320226
 Sym= A
 Ene=              17
 Spin= Alpha
 Occup=    0.00000
   1    -1.5555916805607e-05
   2    0.0035883394617602
   3    -1.743132114586e-05
   4    2.2346104222484e-05
   5    -0.0029083113011108
   6    -1.5555916805268e-05
   7    0.0035883394617603
   8    -1.7431321143716e-05
   9    -2.2346104222177e-05
  10    -0.0029083113011094
  11    2.1158053859203e-05
  12    -0.0014686153792299
  13    -0.0028864875327223
  14    -9.272304427899e-16
  15    0.00092815174975249
  16    -0.004729204640722
  17      0.01279205918087
  18       1.0029325515649
  19    -3.7995611426993e-16
  20    -0.00039652993277202
  21     0.015709951979864
  22     -0.03190706188102
  23    0.0031733434185941
  24    0.00032573739549874
  25    -0.001124543842164
  26     0.015709951979863
  27     -0.03190706188102
  28    0.0031733434185956
  29    -0.00032573739550061
  30    -0.0011245438421633
  31    0.00022603289656643
  32    -0.00066573465139647
  33    -0.0001583792905993
  34    -3.3520711932351e-15
  35    0.00022414576020659
  36    0.0084093789371293
  37    -0.015788203450409
  38    0.0023264279863072
  39    -2.9031941379629e-15
  40    -9.1830167093488e-05
 Sym= A
 Ene=              18
 Spin= Alpha
 Occup=    0.00000
   1    1.5580471002791e-05
   2    -0.0028808363948492
   3    5.3945219530448e-06
   4    -1.4150485884595e-06
   5    0.0021939340861279
   6    -1.558047100402e-05
   7    0.0028808363948493
   8    -5.3945219543915e-06
   9    -1.4150485936485e-06
  10    -0.0021939340861272
  11    -3.1402467618835e-16
  12    -1.7686223085358e-16
  13    3.2387394585527e-15
  14    -0.0029049481726572
  15    7.5597404487429e-16
  16    9.3725750893619e-16
  17    1.2931380084396e-16
  18    -3.799561142133e-16
  19       1.0012129632216
  20    2.1742978814691e-17
  21     0.011687760713021
  22    -0.025577334490182
  23    0.0017842458534439
  24    0.0019551370455017
  25    -0.00041876691744622
  26     -0.01168776071302
  27     0.025577334490182
  28    -0.0017842458534423
  29    0.0019551370454996
  30    0.00041876691744621
  31    -4.6438999621473e-16
  32    7.4605932784412e-18
  33    6.2896703704331e-17
  34    -0.00015040223277797
  35    -6.7167312604795e-16
  36    -1.8437678586351e-17
  37    -2.0480618787249e-17
  38    1.0924102061925e-15
  39    0.00094180467074496
  40    -6.5463856160279e-15
 Sym= A
 Ene=              19
 Spin= Alpha
 Occup=    0.00000
   1    -0.0016938270434057
   2     0.006920047714162
   3    -0.0033541614946912
   4    0.0014216954470239
   5    -0.00088628850741218
   6    -0.0016938270434032
   7     0.006920047714162
   8    -0.0033541614946916
   9    -0.0014216954470243
  10    -0.00088628850742029
  11     0.035325141290342
  12    -0.090112874233498
  13    -0.0009281517497521
  14    3.3700337845049e-16
  15     0.029295567998525
  16    -0.0066433600175785
  17      0.02271360100685
  18    -0.00039652993277201
  19    2.1742978820048e-17
  20       1.0104985628017
  21    0.0016697249917921
  22    -0.0057729932751035
  23    0.00092493759273007
  24    0.00076449510047105
  25    0.00059184678518909
  26     0.001669724991794
  27    -0.0057729932751033
  28    0.00092493759273015
  29    -0.00076449510047164
  30    0.00059184678519953
  31    -0.0034137740933056
  32    0.0099702290996613
  33    -0.0025759013607642
  34    3.9686069167881e-16
  35    -0.0027150197846276
  36     -0.01548166602078
  37     0.031995317132583
  38    -0.0011283384617069
  39    -1.9660895764542e-16
  40    0.0020946498103875
 Sym= A
 Ene=              20
 Spin= Alpha
 Occup=    0.00000
   1    -0.0014565701936857
   2    -0.0012910631075083
   3    -5.7156847674092e-06
   4    -2.126428681589e-05
   5    0.0016938203562978
   6    -0.0045115094099832
   7     0.058903191530277
   8    -1.0578857438403e-05
   9    -1.8320176503665e-05
  10    -0.035325146961768
  11    -0.0014565680970023
  12    -0.0012910363024467
  13    -1.555591680535e-05
  14    -1.558047100298e-05
  15     0.001693827043403
  16    -0.0092739928557538
  17      0.03502172978123
  18     0.015709951979864
  19     0.011687760713021
  20    0.0016697249917921
  21        1.239499251846
  22     -0.48771659258514
  23    0.0023646024476902
  24    0.0040956327882946
  25    -0.0066433757846661
  26    -0.0092739730036131
  27     0.035021956455879
  28    0.0022669393083555
  29     0.019449288896163
  30    0.0016697151005727
  31    0.0028379380909743
  32    -0.007716109670124
  33    -0.00092196452501435
  34    -0.0015968774361603
  35    0.0023175047243828
  36    -0.010565908858319
  37     0.037616295962127
  38    0.0068814801047041
  39     0.011918988067059
  40     0.014694564689727
 Sym= A
 Ene=              21
 Spin= Alpha
 Occup=    0.00000
   1    -0.0012910631075081
   2     0.017602856976769
   3    0.00070071054694617
   4    0.0045480671683606
   5    -0.0069200857069346
   6     0.058903191530277
   7     -0.24973131087663
   8    0.00073430700130929
   9    0.0012718602643966
  10     0.090112891304689
  11    -0.0012910390128722
  12     0.017602613357346
  13      0.00358833946176
  14    0.0028808363948492
  15    -0.0069200477141621
  16     0.035021720864168
  17     -0.11319212981788
  18     -0.03190706188102
  19    -0.025577334490182
  20    -0.0057729932751035
  21     -0.48771659258514
  22       1.3622832205983
  23    -0.0063960262162602
  24     -0.01107831767106
  25     0.022713651668091
  26     0.035021956455878
  27     -0.11319330226142
  28    -0.006197106969196
  29    -0.040421458245424
  30    -0.0057729826048878
  31    -0.0091566026085348
  32     0.026833088504899
  33      0.00360687750857
  34    0.0062472576528596
  35    -0.0076257155681983
  36     0.037411645047199
  37     -0.11696978478734
  38    -0.015262828563555
  39    -0.026435838726656
  40     -0.02984139851971
 Sym= A
 Ene=              22
 Spin= Alpha
 Occup=    0.00000
   1    -5.7156847666842e-06
   2    0.00070071054694602
   3    6.5930159566146e-06
   4    -8.4758353514384e-06
   5    -0.00044585061852884
   6    -1.0578857437612e-05
   7    0.0007343070013093
   8    -0.0029003329850399
   9    7.9937169608345e-06
  10    -0.00046407584921156
  11    2.1271253971006e-05
  12    -0.0042890515322123
  13    -1.743132114485e-05
  14    -5.3945219538776e-06
  15    0.0033541614946905
  16    -0.017976892551926
  17     0.038104186991561
  18    0.0031733434185941
  19    0.0017842458534439
  20    0.00092493759273007
  21    0.0023646024476902
  22    -0.0063960262162602
  23       1.0016428647033
  24    0.0007445971313171
  25    0.00019826433583408
  26    0.0022669393083561
  27    -0.0061971069691961
  28    0.0013460208508461
  29    -0.00072924393885332
  30    0.00019960926075605
  31    -0.00011301671546594
  32    0.00033286919183055
  33    -0.00015239710257428
  34    -3.4535848102434e-06
  35    -0.0001120740043037
  36    -0.0042047099348696
  37    0.0078941282222487
  38    0.0012879711581282
  39    0.00059955269766827
  40    4.5900809900029e-05
 Sym= A
 Ene=              23
 Spin= Alpha
 Occup=    0.00000
   1    2.1264286816123e-05
   2    -0.0045480671683605
   3    8.4758353463383e-06
   4    -2.5439354404957e-05
   5    0.0036156776994221
   6    -1.8320176503419e-05
   7    0.0012718602643964
   8    7.9937169569606e-06
   9    -0.0028911027761925
  10    -0.00080380607939046