[Molden Format]
made by pyscf v[2.3.0]
[Atoms] (AU)
He   1   2     3.15540799101500    -3.15540799101500     0.00000000000000
He   2   2     3.15344267584546     0.00000000000000     0.00000000000000
He   3   2     3.15540799101500     3.15540799101500     0.00000000000000
He   4   2     0.00000000000000     3.15344267584546     0.00000000000000
He   5   2    -3.15540799101500     3.15540799101500     0.00000000000000
He   6   2    -3.15344267584546     0.00000000000000     0.00000000000000
He   7   2    -3.15540799101500    -3.15540799101500     0.00000000000000
He   8   2     0.00000000000000    -3.15344267584546     0.00000000000000
[GTO]
1 0
 s    3 1.00
                 38.36   0.040176075383249
                  5.77    0.26136807476949
                  1.24    0.79307123949544
 s    1 1.00
                0.2976                   1
 p    1 1.00
                 1.275                   1

2 0
 s    3 1.00
                 38.36   0.040176075383249
                  5.77    0.26136807476949
                  1.24    0.79307123949544
 s    1 1.00
                0.2976                   1
 p    1 1.00
                 1.275                   1

3 0
 s    3 1.00
                 38.36   0.040176075383249
                  5.77    0.26136807476949
                  1.24    0.79307123949544
 s    1 1.00
                0.2976                   1
 p    1 1.00
                 1.275                   1

4 0
 s    3 1.00
                 38.36   0.040176075383249
                  5.77    0.26136807476949
                  1.24    0.79307123949544
 s    1 1.00
                0.2976                   1
 p    1 1.00
                 1.275                   1

5 0
 s    3 1.00
                 38.36   0.040176075383249
                  5.77    0.26136807476949
                  1.24    0.79307123949544
 s    1 1.00
                0.2976                   1
 p    1 1.00
                 1.275                   1

6 0
 s    3 1.00
                 38.36   0.040176075383249
                  5.77    0.26136807476949
                  1.24    0.79307123949544
 s    1 1.00
                0.2976                   1
 p    1 1.00
                 1.275                   1

7 0
 s    3 1.00
                 38.36   0.040176075383249
                  5.77    0.26136807476949
                  1.24    0.79307123949544
 s    1 1.00
                0.2976                   1
 p    1 1.00
                 1.275                   1

8 0
 s    3 1.00
                 38.36   0.040176075383249
                  5.77    0.26136807476949
                  1.24    0.79307123949544
 s    1 1.00
                0.2976                   1
 p    1 1.00
                 1.275                   1

[5d]
[7f]
[9g]

[MO]
 Sym= A
 Ene=               0
 Spin= Alpha
 Occup=    1.00000
   1       1.2320072497021
   2     -0.46953767344513
   3    0.0046923470802871
   4    -0.0046923470802872
   5    1.3415115570692e-17
   6    -0.011808439038905
   7     0.053978532800614
   8    0.00039432459847981
   9    -0.026841606680949
  10    -6.4282084060414e-17
  11    0.0032553830264041
  12    -0.0097661517791487
  13    -5.1576877902515e-05
  14    0.0036861509062158
  15    -1.3791236188699e-17
  16    0.00072915836403814
  17    -0.0008350409409603
  18    0.00040864707054885
  19    0.00037887136504297
  20    -1.8687533279521e-17
  21    -0.00016863399666232
  22    0.00043339658149707
  23    7.0663688024361e-05
  24    -7.0663688024506e-05
  25    -1.8430297773052e-18
  26    0.00072915836403817
  27    -0.00083504094096045
  28    -0.000378871365043
  29    -0.00040864707054863
  30    7.3454328642779e-22
  31    0.0032553830264042
  32    -0.0097661517791486
  33    -0.0036861509062159
  34    5.1576877902325e-05
  35    -6.1354748381655e-20
  36    -0.011808439038905
  37     0.053978532800613
  38      0.02684160668095
  39    -0.00039432459847983
  40    8.9566127343924e-20
 Sym= A
 Ene=               1
 Spin= Alpha
 Occup=    1.00000
   1     -0.46953767344513
   2       1.3089258734435
   3    -0.013503036408119
   4     0.013503036408118
   5     6.95873395132e-19
   6      0.05277507212292
   7     -0.18482869528173
   8    -0.0011687280374068
   9     0.059480344173264
  10    2.2858365691105e-17
  11    -0.0097661517791491
  12     0.031263558346312
  13    0.00014512741301518
  14    -0.011470041835132
  15    1.5042661687671e-18
  16    -0.0021280281628876
  17    0.0026496320538571
  18    -0.0012307899199609
  19    -0.0011394847236969
  20    1.016251771103e-17
  21    0.00043339658149707
  22    -0.001211031238191
  23    -0.00020227650036534
  24    0.00020227650036531
  25    -3.9325384685351e-19
  26    -0.0021280281628875
  27    0.0026496320538572
  28    0.0011394847236969
  29    0.0012307899199609
  30    -4.4027169997702e-19
  31    -0.009766151779149
  32     0.031263558346312
  33     0.011470041835132
  34    -0.00014512741301519
  35    4.465092948952e-19
  36      0.05277507212292
  37     -0.18482869528173
  38    -0.059480344173264
  39    0.0011687280374068
  40    -6.4058791558821e-20
 Sym= A
 Ene=               2
 Spin= Alpha
 Occup=    1.00000
   1     0.004692347080287
   2    -0.013503036408119
   3        1.004292941808
   4    5.0374211701093e-06
   5    -4.56846651491e-17
   6    0.0005598068802763
   7    -0.00039778422349846
   8    -0.00049500396481019
   9    -0.00060509650638024
  10    -6.8507778406585e-17
  11    -5.1576877904062e-05
  12    0.00014512741301487
  13    -1.371344231294e-05
  14    -3.1617029068729e-05
  15    -9.0506609782215e-16
  16    9.8483923314717e-05
  17    -0.00019665145680342
  18    2.2723263238408e-06
  19    5.804790687638e-08
  20    -3.2379635867422e-16
  21    -7.0663688024515e-05
  22    0.00020227650036572
  23    1.4969874072048e-05
  24    -5.252603598661e-05
  25    -6.3800864811762e-16
  26    0.0006404012346702
  27    -0.00070923907273685
  28    -0.00038052249205786
  29    -0.00046033351048449
  30    -1.3541646546781e-15
  31    0.0036861509062168
  32    -0.011470041835132
  33    -0.0039715884724676
  34    3.1617029043054e-05
  35    -2.2669517668543e-15
  36    -0.028030108227768
  37     0.063027506986483
  38     0.010387151742951
  39    -2.0545283273115e-06
  40    -9.3182872598592e-16
 Sym= A
 Ene=               3
 Spin= Alpha
 Occup=    1.00000
   1    -0.0046923470802871
   2     0.013503036408118
   3    5.0374211701013e-06
   4        1.004292941808
   5    -2.9046212882817e-17
   6     0.028030108227768
   7    -0.063027506986483
   8    -2.0545283273292e-06
   9     0.010387151742949
  10    -5.459001334552e-18
  11    -0.0036861509062168
  12     0.011470041835132
  13    3.1617029043312e-05
  14    -0.0039715884724667
  15    -9.8879211771974e-16
  16    -0.00064040123467026
  17    0.00070923907273676
  18    -0.00046033351048474
  19    -0.00038052249205772
  20    -3.4901082297256e-16
  21    7.0663688024877e-05
  22    -0.00020227650036586
  23    -5.2526035986592e-05
  24    1.4969874072944e-05
  25    -6.096617975206e-16
  26    -9.8483923314469e-05
  27    0.00019665145680333
  28    5.804790688448e-08
  29    2.2723263228413e-06
  30    -1.3904936757492e-15
  31    5.1576877903915e-05
  32    -0.00014512741301477
  33    -3.1617029068796e-05
  34    -1.3713442311729e-05
  35    -2.2129925735005e-15
  36    -0.00055980688027614
  37    0.00039778422349835
  38    -0.00060509650638018
  39    -0.00049500396480999
  40    -9.2991606603519e-16
 Sym= A
 Ene=               4
 Spin= Alpha
 Occup=    1.00000
   1    1.3415115570696e-17
   2    6.9587339513227e-19
   3    -4.5684665149119e-17
   4    -2.9046212882855e-17
   5       1.0000023005845
   6    -1.1231171127356e-16
   7    -3.4683768385163e-17
   8    5.2707484073539e-15
   9    6.1238776217858e-17
  10    -0.00087570746473499
  11    2.5079347499567e-18
  12    1.6556257162195e-16
  13    1.5454062735845e-15
  14    7.6374916513817e-17
  15    1.1502871105345e-06
  16    6.7558331529436e-16
  17    -1.7154094835308e-16
  18    5.4285932756912e-17
  19    -4.8545559141215e-15
  20    3.6789458719602e-10
  21    -1.3732783043649e-17
  22    -4.8226910007507e-18
  23    -1.5596285122803e-15
  24    -1.3549414428484e-15
  25    -8.3057345628507e-13
  26    -4.2026675009443e-16
  27    -5.1870960701622e-17
  28    -4.8614424719829e-15
  29    -6.3609908019861e-18
  30    3.6788570603839e-10
  31    4.6029222758775e-17
  32    -4.5324048481521e-17
  33    -5.4988531973538e-18
  34    1.5170199833064e-15
  35    1.1502870960851e-06
  36    1.3688947071591e-16
  37    2.4692769168847e-17
  38    1.3056776315997e-17
  39    5.3155266608051e-15
  40    -0.00087570746474362
 Sym= A
 Ene=               5
 Spin= Alpha
 Occup=    1.00000
   1    -0.011808439038905
   2      0.05277507212292
   3    0.00055980688027631
   4     0.028030108227768
   5    -1.1231171127357e-16
   6       1.2324684843698
   7     -0.47030597124378
   8    0.00010810984646276
   9    -2.3710597472338e-16
  10    -1.1051933824101e-16
  11    -0.011808439038905
  12      0.05277507212292
  13    0.00055980688027602
  14    -0.028030108227768
  15    2.5969879613224e-16
  16    -0.0055199100789544
  17    0.0089652306183031
  18    -0.001387912311029
  19    -0.0028352463301297
  20    7.0605442817396e-17
  21    0.00072915836403755
  22    -0.0021280281628883
  23    -0.00064040123467024
  24    9.8483923314601e-05
  25    1.2253897058018e-16
  26    -0.00058990096803137
  27    0.0012880579562003
  28    -6.7405314290498e-05
  29    -8.21582911555e-17
  30    4.1906951232944e-16
  31    0.00072915836403845
  32    -0.0021280281628873
  33    -0.00064040123467011
  34    -9.8483923314617e-05
  35    7.8801049647303e-16
  36    -0.0055199100789548
  37    0.0089652306183025
  38    -0.0013879123110289
  39    0.0028352463301294
  40    2.4334958379465e-16
 Sym= A
 Ene=               6
 Spin= Alpha
 Occup=    1.00000
   1     0.053978532800614
   2     -0.18482869528173
   3    -0.00039778422349847
   4    -0.063027506986483
   5    -3.4683768385163e-17
   6     -0.47030597124378
   7        1.310581575273
   8    -9.2815328996345e-05
   9    -4.46981838143e-17
  10    8.1495878706157e-18
  11     0.053978532800614
  12     -0.18482869528173
  13    -0.00039778422349865
  14     0.063027506986483
  15    -6.997700883993e-17
  16    0.0089652306183027
  17    -0.011486803083909
  18    0.0067815318095732
  19    0.0058159288828424
  20    -7.3294423003581e-17
  21    -0.00083504094096078
  22    0.0026496320538568
  23    0.00070923907273684
  24    -0.00019665145680362
  25    -9.7729663794467e-18
  26    0.0012880579561999
  27    -0.0027108958436143
  28    1.5603442428542e-05
  29    -2.3014918342763e-16
  30    6.915551256293e-17
  31    -0.00083504094095939
  32    0.0026496320538573
  33    0.00070923907273664
  34    0.00019665145680357
  35    -9.5699618808806e-18
  36    0.0089652306183024
  37    -0.011486803083909
  38    0.0067815318095729
  39    -0.0058159288828424
  40    -1.117778767086e-17
 Sym= A
 Ene=               7
 Spin= Alpha
 Occup=    1.00000
   1    0.00039432459847981
   2    -0.0011687280374068
   3    -0.00049500396481018
   4    -2.0545283273382e-06
   5    5.270748407354e-15
   6    0.00010810984646275
   7    -9.2815328996343e-05
   8       1.0000728737557
   9    1.3357623506596e-15
  10    1.402269318273e-15
  11    0.00039432459847977
  12    -0.0011687280374069
  13    -0.00049500396481281
  14    2.0545283267735e-06
  15    -2.6402349282639e-15
  16    -0.0028352463301298
  17    0.0058159288828424
  18    6.991646339928e-06
  19    -1.9637737192165e-05
  20    1.309401289215e-15
  21    0.00037887136504339
  22    -0.0011394847236966
  23    -0.00038052249205896
  24    5.8047906229614e-08
  25    3.0005203417837e-15
  26    6.7405314290086e-05
  27    -1.5603442428479e-05
  28    -7.0562377716014e-05
  29    -9.6843380884651e-16
  30    -1.1300464184666e-15
  31    0.00037887136504326
  32    -0.0011394847236967
  33    -0.00038052249205877
  34    -5.8047906587386e-08
  35    -6.4815638016049e-15
  36    -0.0028352463301294
  37    0.0058159288828424
  38    6.9916463417574e-06
  39    1.9637737189031e-05
  40    -3.7450732367156e-16
 Sym= A
 Ene=               8
 Spin= Alpha
 Occup=    0.00000
   1    -0.026841606680949
   2     0.059480344173264
   3    -0.00060509650638023
   4     0.010387151742949
   5    6.1238776217832e-17
   6    -2.4144019286375e-16
   7    -4.43130452874e-17
   8    1.3406137596843e-15
   9       1.0079590526748
  10    -9.5000447706366e-17
  11     0.026841606680956
  12    -0.059480344173263
  13    0.00060509650638998
  14     0.010387151742951
  15    3.8926307636813e-17
  16    -0.0013879123110291
  17    0.0067815318095732
  18    0.0037541639099271
  19    6.9916463399554e-06
  20    -1.4004798078773e-17
  21    0.00040864707054845
  22    -0.0012307899199609
  23    -0.00046033351048422
  24    2.2723263225234e-06
  25    -9.790282910514e-17
  26    -3.6538968527622e-17
  27    1.1324350350329e-16
  28    2.6356495132206e-15
  29    9.6764291430806e-05
  30    4.9187843206846e-17
  31    -0.00040864707055459
  32    0.0012307899199603
  33    0.00046033351049291
  34    2.2723263227353e-06
  35    2.8991568689531e-17
  36     0.001387912311029
  37    -0.006781531809573
  38    -0.0037541639099728
  39    6.9916463415955e-06
  40    3.0687816357043e-17
 Sym= A
 Ene=               9
 Spin= Alpha
 Occup=    0.00000
   1    -6.4282084060414e-17
   2    2.2858365691105e-17
   3    -6.8507778406592e-17
   4    -5.4590013345411e-18
   5    -0.00087570746473499
   6    -1.1051933824101e-16
   7    8.1495878706157e-18
   8    1.4022693182726e-15
   9    -9.50004477064e-17
  10       1.0000023005858
  11    -9.1288100113897e-17
  12    -9.0562176653982e-17
  13    3.2309301110422e-16
  14    8.4131906699141e-17
  15    -0.00087570746473153
  16    6.0619586988564e-17
  17    1.0448279992736e-16
  18    -1.9821697270936e-17
  19    -1.6357195292161e-15
  20    -4.0787701617617e-07
  21    1.609821801533e-17
  22    1.2778552788436e-16
  23    -1.0675160848862e-16
  24    -4.6143853543022e-17
  25    3.6789172075972e-10
  26    1.2398257234833e-16
  27    -3.3397951861699e-16
  28    -1.6822268833269e-15
  29    -2.1922705314437e-17
  30    -4.3763741228855e-12
  31    -1.4032429550973e-17
  32    1.8515877767711e-16
  33    -2.6053008233353e-17
  34     4.01465085908e-16
  35    3.6788731941934e-10
  36    2.5772630377291e-18
  37    1.0336168103785e-16
  38    4.6194734140985e-17
  39    1.4585827518008e-15
  40    -4.0787702159218e-07
 Sym= A
 Ene=              10
 Spin= Alpha
 Occup=    0.00000
   1    0.0032553830264041
   2    -0.0097661517791491
   3    -5.1576877904062e-05
   4    -0.0036861509062167
   5    2.5079347499547e-18
   6    -0.011808439038905
   7     0.053978532800614
   8    0.00039432459847977
   9     0.026841606680956
  10    -9.1288100113901e-17
  11       1.2320072497021
  12     -0.46953767344513
  13    0.0046923470802792
  14    0.0046923470802859
  15    8.7621862621754e-17
  16    -0.011808439038906
  17     0.053978532800613
  18     0.026841606680954
  19    0.00039432459848017
  20    -2.1656501191708e-17
  21    0.0032553830264065
  22    -0.0097661517791482
  23    -0.0036861509062241
  24    -5.1576877901509e-05
  25    1.0778575140841e-17
  26    0.00072915836403756
  27    -0.00083504094096064
  28    -0.00037887136504383
  29    0.00040864707054348
  30    -4.9415185239416e-17
  31    -0.00016863399666284
  32     0.000433396581496
  33    7.0663688023022e-05
  34    7.0663688024824e-05
  35    9.8367392961109e-17
  36    0.00072915836403826
  37    -0.00083504094095913
  38    0.00040864707055482
  39    -0.00037887136504337
  40    4.9149466401688e-17
 Sym= A
 Ene=              11
 Spin= Alpha
 Occup=    0.00000
   1    -0.0097661517791487
   2     0.031263558346312
   3    0.00014512741301487
   4     0.011470041835132
   5    1.6556257162195e-16
   6      0.05277507212292
   7     -0.18482869528173
   8    -0.0011687280374069
   9    -0.059480344173263
  10    -9.0562176653982e-17
  11     -0.46953767344513
  12       1.3089258734435
  13    -0.013503036408119
  14    -0.013503036408119
  15    4.1254064194482e-18
  16     0.052775072122919
  17     -0.18482869528173
  18    -0.059480344173263
  19    -0.0011687280374068
  20    -1.9231041230236e-17
  21    -0.0097661517791482
  22     0.031263558346312
  23     0.011470041835132
  24    0.0001451274130156
  25    1.8140487870456e-17
  26    -0.0021280281628882
  27    0.0026496320538565
  28    0.0011394847236967
  29    -0.0012307899199611
  30    -1.974407083051e-17
  31    0.00043339658149615
  32    -0.0012110312381911
  33    -0.00020227650036553
  34    -0.0002022765003652
  35    -6.3008224878105e-17
  36    -0.0021280281628871
  37    0.0026496320538572
  38    -0.0012307899199603
  39    0.0011394847236967
  40    2.494099758576e-18
 Sym= A
 Ene=              12
 Spin= Alpha
 Occup=    0.00000
   1    -5.1576877902517e-05
   2    0.00014512741301518
   3    -1.3713442312964e-05
   4    3.1617029043314e-05
   5    1.5454062735845e-15
   6    0.00055980688027601
   7    -0.00039778422349866
   8    -0.00049500396481281
   9    0.00060509650638997
  10    3.2309301110422e-16
  11    0.0046923470802792
  12    -0.013503036408119
  13        1.004292941808
  14    -5.0374211973576e-06
  15    -1.1124702642066e-15
  16    -0.028030108227769
  17     0.063027506986483
  18     0.010387151743002
  19    2.0545283280272e-06
  20    -1.722476138144e-16
  21    0.0036861509062247
  22    -0.011470041835131
  23    -0.0039715884724664
  24    -3.1617029021256e-05
  25    2.4183363757827e-16
  26    0.00064040123466993
  27    -0.00070923907273701
  28    -0.0003805224920613
  29    0.0004603335104806
  30    -1.8607755658448e-15
  31    -7.0663688024742e-05
  32    0.00020227650036522
  33    1.496987407226e-05
  34    5.2526036009336e-05
  35    -3.5729814176524e-15
  36    9.8483923314637e-05
  37    -0.00019665145680369
  38    2.272326324214e-06
  39    -5.8047906552053e-08
  40    -1.2294243712427e-15
 Sym= A
 Ene=              13
 Spin= Alpha
 Occup=    0.00000
   1    0.0036861509062158
   2    -0.011470041835132
   3    -3.1617029068692e-05
   4    -0.0039715884724667
   5    7.637491651381e-17
   6    -0.028030108227768
   7     0.063027506986483
   8    2.0545283267721e-06
   9     0.010387151742951
  10    8.4131906699168e-17
  11    0.0046923470802859
  12    -0.013503036408119
  13    -5.0374211973432e-06
  14        1.004292941808
  15    7.5359205836274e-16
  16    0.00055980688027602
  17    -0.00039778422349894
  18    0.00060509650639026
  19    -0.00049500396480988
  20    3.029081845541e-16
  21    -5.1576877901537e-05
  22    0.00014512741301499
  23    3.1617029042468e-05
  24    -1.3713442310707e-05
  25    8.4935921921268e-16
  26    9.8483923314561e-05
  27    -0.00019665145680375
  28    -5.8047908699792e-08
  29    2.2723263223588e-06
  30    1.4005955291525e-15
  31    -7.0663688023348e-05
  32    0.00020227650036563
  33    5.2526035960617e-05
  34    1.4969874073025e-05
  35    2.1974848406006e-15
  36    0.00064040123467023
  37    -0.00070923907273669
  38    0.00046033351049287
  39    -0.00038052249205859
  40    9.3736909196316e-16
 Sym= A
 Ene=              14
 Spin= Alpha
 Occup=    0.00000
   1    -1.3791236188697e-17
   2    1.504266168767e-18
   3    -9.0506609782215e-16
   4    -9.8879211771974e-16
   5    1.1502871105516e-06
   6    2.5969879613224e-16
   7    -6.997700883993e-17
   8    -2.6402349282639e-15
   9    3.8926307636813e-17
  10    -0.00087570746473153
  11    8.7621862621758e-17
  12    4.1254064194486e-18
  13    -1.1124702642065e-15
  14    7.5359205836275e-16
  15       1.0000023005845
  16    -3.2965967577272e-16
  17    -1.7403174459205e-16
  18    -9.9068006329465e-17
  19    2.9840595646517e-15
  20    -0.00087570746473708
  21    -4.1766721436033e-17
  22    1.3961288408948e-17
  23    1.125950656409e-15
  24    1.2240340993628e-15
  25    1.1502871111329e-06
  26    3.3499724007547e-16
  27    1.4280196225505e-16
  28    2.9083583219037e-15
  29    3.1803824911486e-17
  30    3.6788683516788e-10
  31    -5.3903554381921e-17
  32    -2.2727410894979e-17
  33    7.8601298849704e-16
  34    -1.1384709109821e-15
  35    -8.2564553150915e-13
  36    -2.5896629295594e-16
  37    9.0352160355748e-17
  38    7.0702502436172e-17
  39    -2.6857471677234e-15
  40    3.6789252764041e-10
 Sym= A
 Ene=              15
 Spin= Alpha
 Occup=    0.00000
   1    0.00072915836403815
   2    -0.0021280281628875
   3    9.8483923314727e-05
   4    -0.00064040123467026
   5    6.7558331529436e-16
   6    -0.0055199100789544
   7    0.0089652306183027
   8    -0.0028352463301298
   9    -0.0013879123110291
  10    6.0619586988566e-17
  11    -0.011808439038906
  12     0.052775072122919
  13    -0.028030108227769
  14    0.00055980688027603
  15    -3.2965967577272e-16
  16       1.2324684843698
  17     -0.47030597124378
  18    -1.341920628994e-17
  19    0.0001081098464627
  20    7.7083364366792e-17
  21    -0.011808439038907
  22     0.052775072122919
  23     0.028030108227768
  24    0.00055980688027572
  25    1.483616759869e-16
  26    -0.0055199100789541
  27    0.0089652306183034
  28    0.0028352463301293
  29    -0.0013879123110292
  30    -5.4364101745681e-16
  31    0.00072915836403744
  32    -0.0021280281628881
  33    -9.848392331449e-05
  34    -0.00064040123466994
  35    -1.1138496666793e-15
  36    -0.00058990096803135
  37    0.0012880579561999
  38    1.1057911559994e-16
  39    -6.7405314290253e-05
  40    -3.7432724561854e-16
 Sym= A
 Ene=              16
 Spin= Alpha
 Occup=    0.00000
   1    -0.00083504094096033
   2    0.0026496320538572
   3    -0.00019665145680342
   4    0.00070923907273677
   5    -1.7154094835308e-16
   6    0.0089652306183031
   7    -0.011486803083909
   8    0.0058159288828424
   9    0.0067815318095732
  10    1.0448279992736e-16
  11     0.053978532800613
  12     -0.18482869528173
  13     0.063027506986483
  14    -0.00039778422349895
  15    -1.7403174459205e-16
  16     -0.47030597124378
  17        1.310581575273
  18    1.0634790696635e-16
  19    -9.2815328996498e-05
  20    -2.4937707062139e-17
  21     0.053978532800612
  22     -0.18482869528173
  23    -0.063027506986483
  24    -0.0003977842234989
  25    -2.9423475849871e-17
  26    0.0089652306183033
  27    -0.011486803083908
  28    -0.0058159288828424
  29    0.0067815318095731
  30    -1.6845717392282e-17
  31    -0.00083504094096061
  32    0.0026496320538564
  33    0.00019665145680367
  34    0.00070923907273703
  35    -5.8502177557924e-17
  36       0.0012880579562
  37    -0.0027108958436143
  38    -1.2187301935374e-16
  39    1.5603442428662e-05
  40    -1.1282860284532e-17
 Sym= A
 Ene=              17
 Spin= Alpha
 Occup=    0.00000
   1    0.00040864707054886
   2    -0.0012307899199609
   3    2.2723263238102e-06
   4    -0.00046033351048472
   5    5.4285932756894e-17
   6    -0.001387912311029
   7    0.0067815318095732
   8    6.9916463399293e-06
   9    0.0037541639099271
  10    -1.9821697270925e-17
  11     0.026841606680954
  12    -0.059480344173263
  13     0.010387151743002
  14    0.00060509650639024
  15    -9.9068006329459e-17
  16    -1.3940836781491e-17
  17    1.0784169834203e-16
  18       1.0079590526748
  19    -2.0570159110891e-15
  20    2.8142064398642e-19
  21     -0.02684160668096
  22     0.059480344173263
  23     0.010387151743002
  24    -0.00060509650639417
  25    -1.5856546320887e-17
  26    0.0013879123110292
  27    -0.0067815318095731
  28    6.9916463407632e-06
  29    -0.0037541639098882
  30    1.7107305975787e-17
  31    -0.00040864707054376
  32     0.001230789919961
  33    2.2723263235803e-06
  34    0.00046033351048062
  35    3.5911663773682e-17
  36    3.3234856058564e-17
  37    2.2790900320679e-16
  38    9.6764291429169e-05
  39    -1.0155910165301e-15
  40    1.6378200666999e-17
 Sym= A
 Ene=              18
 Spin= Alpha
 Occup=    0.00000
   1    0.00037887136504297
   2    -0.0011394847236969
   3    5.8047906876832e-08
   4    -0.00038052249205772
   5    -4.8545559141215e-15
   6    -0.0028352463301297
   7    0.0058159288828424
   8    -1.9637737192163e-05
   9    6.9916463399558e-06
  10    -1.6357195292158e-15
  11    0.00039432459848017
  12    -0.0011687280374068
  13    2.0545283280283e-06
  14    -0.00049500396480988
  15    2.9840595646521e-15
  16    0.0001081098464627
  17    -9.2815328996498e-05
  18    -2.0562641875837e-15
  19       1.0000728737557
  20    -1.0778343624253e-15
  21    0.0003943245984796
  22    -0.0011687280374068
  23    -2.0545283268899e-06
  24    -0.00049500396481176
  25    -3.5863648830755e-15
  26    -0.0028352463301294
  27    0.0058159288828424
  28    1.9637737195068e-05
  29    6.9916463406364e-06
  30    1.4440369376042e-15
  31    0.00037887136504381
  32    -0.0011394847236967
  33    -5.8047908704441e-08
  34    -0.00038052249206114
  35    5.8490129754004e-15
  36    6.740531429046e-05
  37    -1.5603442428512e-05
  38    2.6571194350042e-15
  39    -7.0562377716075e-05
  40    1.4716707388711e-16
 Sym= A
 Ene=              19
 Spin= Alpha
 Occup=    0.00000
   1    -1.8687533279521e-17
   2    1.016251771103e-17
   3    -3.2379635867421e-16
   4    -3.4901082297256e-16
   5    3.6789461805386e-10
   6    7.0605442817394e-17
   7    -7.3294423003581e-17
   8    1.3094012892148e-15
   9    -1.4004798078754e-17
  10    -4.0787701619931e-07
  11    -2.1656501191708e-17
  12    -1.9231041230236e-17
  13    -1.7224761381439e-16
  14    3.029081845541e-16
  15    -0.00087570746473708
  16    7.7083364366796e-17
  17    -2.4937707062139e-17
  18    2.8142064398476e-19
  19    -1.0778343624252e-15
  20       1.0000023005858
  21    1.1535473666255e-17
  22    8.1568201106734e-18
  23    1.6837701022269e-16
  24    1.9980712073711e-16
  25    -0.00087570746474182
  26    -3.8646934844777e-17
  27    2.3007672417376e-17
  28    -1.082767788542e-15
  29    -3.5245418215745e-20
  30    -4.0787702866286e-07
  31    -3.2225004331862e-17
  32    1.5944078650386e-17
  33    3.1501658528357e-16
  34    -1.7293660824192e-16
  35    3.6788300216165e-10
  36    -9.5702703337075e-17
  37    1.0470848543723e-16
  38    -1.3312097363602e-17
  39    1.3111164289686e-15
  40    -4.3751125419351e-12
 Sym= A
 Ene=              20
 Spin= Alpha
 Occup=    0.00000
   1    -0.00016863399666232
   2    0.00043339658149703
   3    -7.0663688024517e-05
   4    7.0663688024875e-05
   5    -1.373278304365e-17
   6    0.00072915836403756
   7    -0.00083504094096076
   8    0.0003788713650434
   9    0.00040864707054846
  10    1.609821801533e-17
  11    0.0032553830264065
  12    -0.0097661517791482
  13    0.0036861509062247
  14    -5.1576877901549e-05
  15    -4.1766721436033e-17
  16    -0.011808439038907
  17     0.053978532800612
  18     -0.02684160668096
  19    0.0003943245984796
  20    1.1535473666255e-17
  21       1.2320072497021
  22     -0.46953767344513
  23    -0.0046923470802786
  24    0.0046923470802788
  25    4.6288609414813e-17
  26    -0.011808439038907
  27     0.053978532800612
  28    -0.00039432459847957
  29     0.026841606680959
  30    -1.2831893761828e-17
  31    0.0032553830264064
  32    -0.0097661517791482
  33    5.1576877901785e-05
  34    -0.0036861509062245
  35    -3.5298288360591e-18
  36    0.00072915836403766
  37    -0.0008350409409609
  38    -0.00040864707054883
  39    -0.00037887136504352
  40    4.0550093011734e-19
 Sym= A
 Ene=              21
 Spin= Alpha
 Occup=    0.00000
   1    0.00043339658149708
   2    -0.001211031238191
   3    0.00020227650036571
   4    -0.00020227650036587
   5    -4.8226910007507e-18
   6    -0.0021280281628882
   7    0.0026496320538568
   8    -0.0011394847236966
   9    -0.001230789919961
  10    1.2778552788436e-16
  11    -0.0097661517791483
  12     0.031263558346312
  13    -0.011470041835131
  14    0.00014512741301499
  15    1.3961288408948e-17
  16     0.052775072122919
  17     -0.18482869528173
  18     0.059480344173263
  19    -0.0011687280374068
  20    8.1568201106734e-18
  21     -0.46953767344513
  22       1.3089258734435
  23     0.013503036408119
  24    -0.013503036408119
  25    1.528305262328e-17
  26     0.052775072122919
  27     -0.18482869528173
  28    0.0011687280374068
  29    -0.059480344173263
  30    1.5225615593048e-17
  31    -0.0097661517791482
  32     0.031263558346312
  33    -0.00014512741301506
  34     0.011470041835131
  35    -1.5605084170735e-17
  36    -0.0021280281628883
  37    0.0026496320538568
  38     0.001230789919961
  39    0.0011394847236968
  40    -7.5047419434314e-18
 Sym= A
 Ene=              22
 Spin= Alpha
 Occup=    0.00000
   1    7.066368802436e-05
   2    -0.00020227650036534
   3    1.4969874071971e-05
   4    -5.2526035986594e-05
   5    -1.5596285122803e-15
   6    -0.00064040123467023
   7    0.00070923907273683
   8    -0.00038052249205894
   9    -0.00046033351048423
  10    -1.0675160848863e-16
  11    -0.0036861509062241
  12     0.011470041835132
  13    -0.0039715884724664
  14    3.1617029042504e-05
  15    1.1259506564091e-15
  16     0.028030108227768
  17    -0.063027506986483
  18     0.010387151743002
  19    -2.0545283268915e-06
  20    1.6837701022269e-16
  21    -0.0046923470802786
  22     0.013503036408119
  23        1.004292941808
  24    5.0374212200997e-06
  25    -2.1140689791287e-16
  26    -0.00055980688027574
  27    0.00039778422349892
  28    -0.00049500396481185
  29    -0.00060509650639416
  30    1.9592172135865e-15
  31    5.1576877901737e-05
  32    -0.0001451274130155
  33    -1.371344231199e-05
  34    -3.161702902112e-05
  35    3.6653531056982e-15
  36    -9.8483923314617e-05
  37    0.00019665145680372
  38    2.2723263237628e-06
  39    5.8047906327634e-08
  40    1.3611360746646e-15
 Sym= A
 Ene=              23
 Spin= Alpha