[Molden Format]
made by pyscf v[2.3.0]
[Atoms] (AU)
He   1   2     1.79952949663957     3.11687647533512     0.48790838810145
He   2   2    -1.79952949663957    -3.11687647533512    -0.48790838810145
He   3   2     1.79952949663957    -3.11687647533512     0.48790838810145
He   4   2     3.59905899327914     0.00000000000000    -0.48790838810145
He   5   2    -1.79952949663957     3.11687647533512    -0.48790838810145
He   6   2    -3.59905899327914     0.00000000000000     0.48790838810145
He   7   2     0.00000000000000     0.00000000000000     1.92109557823284
He   8   2     0.00000000000000     0.00000000000000    -1.92109557823284
[GTO]
1 0
 s    3 1.00
                 38.36   0.040176075383249
                  5.77    0.26136807476949
                  1.24    0.79307123949544
 s    1 1.00
                0.2976                   1
 p    1 1.00
                 1.275                   1

2 0
 s    3 1.00
                 38.36   0.040176075383249
                  5.77    0.26136807476949
                  1.24    0.79307123949544
 s    1 1.00
                0.2976                   1
 p    1 1.00
                 1.275                   1

3 0
 s    3 1.00
                 38.36   0.040176075383249
                  5.77    0.26136807476949
                  1.24    0.79307123949544
 s    1 1.00
                0.2976                   1
 p    1 1.00
                 1.275                   1

4 0
 s    3 1.00
                 38.36   0.040176075383249
                  5.77    0.26136807476949
                  1.24    0.79307123949544
 s    1 1.00
                0.2976                   1
 p    1 1.00
                 1.275                   1

5 0
 s    3 1.00
                 38.36   0.040176075383249
                  5.77    0.26136807476949
                  1.24    0.79307123949544
 s    1 1.00
                0.2976                   1
 p    1 1.00
                 1.275                   1

6 0
 s    3 1.00
                 38.36   0.040176075383249
                  5.77    0.26136807476949
                  1.24    0.79307123949544
 s    1 1.00
                0.2976                   1
 p    1 1.00
                 1.275                   1

7 0
 s    3 1.00
                 38.36   0.040176075383249
                  5.77    0.26136807476949
                  1.24    0.79307123949544
 s    1 1.00
                0.2976                   1
 p    1 1.00
                 1.275                   1

8 0
 s    3 1.00
                 38.36   0.040176075383249
                  5.77    0.26136807476949
                  1.24    0.79307123949544
 s    1 1.00
                0.2976                   1
 p    1 1.00
                 1.275                   1

[5d]
[7f]
[9g]

[MO]
 Sym= A
 Ene=               0
 Spin= Alpha
 Occup=    1.00000
   1       1.2259502609402
   2     -0.45285167881081
   3    0.0010974730503796
   4    0.0019008792696604
   5    0.00044798736763183
   6    0.00063687334778224
   7    -0.0012130209714627
   8    -0.00016907071586807
   9    -0.00029283904704975
  10    4.7849625501368e-05
  11    0.0035484610262716
  12    -0.0080269666571957
  13    -0.00020338471197585
  14    -0.0018038734971704
  15    8.6960618248924e-05
  16    -0.013992030624395
  17     0.037142477020025
  18    -0.0060367387173922
  19     0.011037313467331
  20     0.003507010714695
  21    -0.013992030480506
  22     0.037142475939537
  23     0.012576962526503
  24    0.00029068775914053
  25    0.0035070104900619
  26    0.0035484609754077
  27    -0.0080269664888906
  28    -0.0014605078702107
  29    -0.0010780730480662
  30    8.6960622311037e-05
  31    -0.012308538378099
  32     0.031048279342757
  33    0.0047325781262121
  34    0.0081970655987878
  35    -0.0033443056267157
  36    -0.0055399180556354
  37     0.011718227441787
  38    0.0015263403745755
  39    0.0026436989737631
  40    0.0012219544912673
 Sym= A
 Ene=               1
 Spin= Alpha
 Occup=    1.00000
   1     -0.45285167881081
   2       1.2570345418177
   3    -0.002599131985167
   4    -0.0045018291559284
   5    -0.0010797943266158
   6    -0.0012130209714629
   7    0.0024985385983664
   8    0.00035254156823907
   9    0.00061061986452736
  10    -6.4308707231991e-05
  11    -0.0080269666571956
  12     0.019172149553216
  13    0.00053862048536424
  14    0.0043134509503024
  15    -0.00021324376264729
  16      0.03714247699052
  17      -0.1008040862445
  18     0.012320656846171
  19    -0.022543547683634
  20    -0.0071300319353077
  21     0.037142475939537
  22     -0.10080408219022
  23     -0.02568361195094
  24    -0.0006017722578254
  25    -0.0071300314538224
  26    -0.0080269664782925
  27     0.019172149002573
  28     0.003466247731302
  29    0.0026231844009617
  30    -0.00021324376532197
  31     0.030709670947276
  32    -0.080856347555209
  33    -0.0095197498504548
  34    -0.016488690072214
  35     0.006652709161094
  36     0.011569170304669
  37     -0.02669990504051
  38    -0.0028617751200435
  39    -0.0049567397122962
  40    -0.0018745173693495
 Sym= A
 Ene=               2
 Spin= Alpha
 Occup=    1.00000
   1    0.0010974730503796
   2    -0.002599131985167
   3       1.0010643472855
   4    -0.00013759743479145
   5    2.4081280185673e-05
   6    0.00016907071586793
   7    -0.00035254156823896
   8    -0.00014586737004899
   9    -4.0813806575393e-06
  10    -1.0491507867962e-05
  11    -0.00020338471197567
  12    0.00053862048536445
  13    0.00030051209597487
  14    0.00013700223501543
  15    -0.00018240502288353
  16    0.0065402246505699
  17    -0.013362956886827
  18    0.00032312247536765
  19    -0.00041949583575851
  20    -0.00018143889949247
  21    -0.012576962526503
  22     0.025683611950941
  23    0.0010524163962912
  24    -1.562313936677e-06
  25    0.00033405578976713
  26    0.0016638925591227
  27    -0.0040048681601404
  28    -0.00060211512051589
  29    -0.00065813427515823
  30    0.00012687649923483
  31    -0.0047392771148122
  32    0.0095780075811752
  33    0.00027253123146252
  34    0.00011228466678862
  35    -5.3007007440903e-05
  36    -0.0012270555528224
  37    0.0021436436003263
  38    0.00056486869694656
  39    -0.00045651758419268
  40    -0.0002916577414639
 Sym= A
 Ene=               3
 Spin= Alpha
 Occup=    1.00000
   1    0.0019008792696604
   2    -0.0045018291559284
   3    -0.00013759743479148
   4       1.0009054635269
   5    4.1710045946447e-05
   6    0.00029283904704963
   7    -0.00061061986452731
   8    -4.0813806574163e-06
   9    -0.00015058013568085
  10    -1.8171825520842e-05
  11    0.0018038734971705
  12    -0.0043134509503027
  13    -0.00013700223501374
  14    -0.00090299089045933
  15    4.1192782512507e-05
  16    -0.010746625743252
  17     0.021941775522657
  18    -0.00042262048472021
  19    0.00080931853200499
  20    0.00028098067181007
  21    0.00029068775914048
  22    -0.00060177225782573
  23    1.5623139379169e-06
  24    8.0024448927591e-05
  25    -1.6640363899906e-05
  26    0.00072580040397466
  27    -0.0016902663943167
  28    -0.00038412982209191
  29    -3.6365613415425e-07
  30    -0.00013737098320629
  31    -0.0082086686554153
  32     0.016589595591381
  33    0.00011228467691624
  34    0.00040218638672045
  35    -9.1810842480151e-05
  36    -0.0021253224800073
  37    0.0037128994910244
  38    -0.00045651758290503
  39    3.7727589200722e-05
  40    -0.00050516601473612
 Sym= A
 Ene=               4
 Spin= Alpha
 Occup=    1.00000
   1    0.00044798736763182
   2    -0.0010797943266158
   3    2.4081280185672e-05
   4    4.1710045946431e-05
   5        1.000225159399
   6    -4.7849625501032e-05
   7    6.4308707231993e-05
   8    -1.0491507868968e-05
   9    -1.8171825523196e-05
  10    0.00010283040765287
  11    8.6960618248588e-05
  12    -0.00021324376264709
  13    -0.00018240502288046
  14    -4.1192782512847e-05
  15    0.0001686098540011
  16    -0.0035070106988052
  17    0.0071300318994094
  18    -0.00015261694687914
  19    0.00029762102571086
  20    0.00012577993805016
  21    -0.0035070104900621
  22    0.0071300314538225
  23    0.00033405578976761
  24    1.6640363898506e-05
  25    0.00012577994092968
  26    8.6960602940573e-05
  27    -0.00021324373225666
  28    5.5528511037735e-05
  29    -0.00017856376134784
  30    0.00016860984343165
  31     0.004414067357962
  32    -0.0090386243122221
  33    -0.00013651845184248
  34    -0.00023645689354775
  35    0.00025353052024434
  36    -0.002482115370125
  37    0.0049119469800982
  38    -5.7351774592514e-05
  39    -9.9336187236497e-05
  40    0.00013471482318717
 Sym= A
 Ene=               5
 Spin= Alpha
 Occup=    1.00000
   1    0.00063687334778221
   2    -0.0012130209714628
   3    0.00016907071586794
   4    0.00029283904704963
   5    -4.7849625501033e-05
   6       1.2259502609402
   7     -0.45285167881081
   8    -0.0010974730503791
   9    -0.0019008792696597
  10    -0.00044798736763194
  11    -0.013992030480505
  12     0.037142475939536
  13    -0.012576962526502
  14    -0.00029068775914116
  15    -0.0035070104900619
  16     0.003548460975408
  17     -0.00802696648889
  18    0.0014605078702114
  19    0.0010780730480656
  20    -8.6960622310437e-05
  21    0.0035484610262717
  22    -0.0080269666571949
  23    0.00020338471197505
  24    0.0018038734971707
  25    -8.696061824836e-05
  26    -0.013992030624394
  27     0.037142477020025
  28    0.0060367387173913
  29     -0.01103731346733
  30    -0.003507010714695
  31    -0.0055399180556359
  32     0.011718227441786
  33    -0.0015263403745751
  34    -0.0026436989737623
  35    -0.001221954491268
  36    -0.012308538378099
  37     0.031048279342756
  38    -0.0047325781262122
  39    -0.008197065598788
  40    0.0033443056267157
 Sym= A
 Ene=               6
 Spin= Alpha
 Occup=    1.00000
   1    -0.0012130209714627
   2    0.0024985385983664
   3    -0.00035254156823896
   4    -0.00061061986452732
   5    6.4308707231992e-05
   6     -0.45285167881081
   7       1.2570345418177
   8    0.0025991319851669
   9    0.0045018291559285
  10    0.0010797943266159
  11     0.037142475939537
  12     -0.10080408219022
  13      0.02568361195094
  14    0.00060177225782516
  15    0.0071300314538223
  16    -0.008026966478292
  17     0.019172149002573
  18    -0.003466247731302
  19    -0.0026231844009615
  20    0.00021324376532198
  21    -0.0080269666571949
  22     0.019172149553216
  23    -0.00053862048536413
  24    -0.0043134509503024
  25    0.00021324376264728
  26      0.03714247699052
  27      -0.1008040862445
  28    -0.012320656846171
  29     0.022543547683634
  30    0.0071300319353077
  31     0.011569170304668
  32    -0.026699905040511
  33    0.0028617751200435
  34    0.0049567397122963
  35    0.0018745173693495
  36     0.030709670947275
  37     -0.08085634755521
  38    0.0095197498504547
  39     0.016488690072215
  40    -0.006652709161094
 Sym= A
 Ene=               7
 Spin= Alpha
 Occup=    1.00000
   1    -0.00016907071586807
   2    0.00035254156823907
   3    -0.00014586737004899
   4    -4.0813806574225e-06
   5    -1.0491507868957e-05
   6    -0.0010974730503791
   7    0.0025991319851669
   8       1.0010643472855
   9    -0.000137597434785
  10    2.4081280187368e-05
  11     0.012576962526503
  12    -0.025683611950941
  13    0.0010524163962918
  14    -1.562313938694e-06
  15    0.00033405578976889
  16    -0.0016638925591227
  17    0.0040048681601404
  18    -0.00060211512051766
  19    -0.00065813427517034
  20    0.00012687649923366
  21    0.00020338471197559
  22    -0.00053862048536451
  23    0.00030051209598301
  24    0.00013700223502056
  25    -0.00018240502287972
  26    -0.0065402246505698
  27     0.013362956886827
  28    0.00032312247536632
  29    -0.00041949583575844
  30    -0.00018143889948947
  31    0.0012270555528226
  32    -0.0021436436003264
  33    0.00056486869694342
  34    -0.00045651758419162
  35    -0.00029165774146185
  36    0.0047392771148119
  37    -0.0095780075811746
  38    0.00027253123146598
  39    0.00011228466679143
  40    -5.3007007439988e-05
 Sym= A
 Ene=               8
 Spin= Alpha
 Occup=    0.00000
   1    -0.00029283904704975
   2    0.00061061986452736
   3    -4.0813806575179e-06
   4    -0.00015058013568086
   5    -1.8171825523185e-05
   6    -0.0019008792696597
   7    0.0045018291559285
   8    -0.00013759743478499
   9       1.0009054635269
  10    4.171004594809e-05
  11    -0.00029068775914098
  12    0.00060177225782578
  13    1.5623139397266e-06
  14    8.002444892523e-05
  15    -1.6640363895071e-05
  16    -0.00072580040397482
  17    0.0016902663943164
  18    -0.00038412982209276
  19    -3.6365612967485e-07
  20    -0.00013737098320267
  21    -0.0018038734971707
  22    0.0043134509503031
  23    -0.00013700223501967
  24    -0.00090299089046523
  25    4.1192782513234e-05
  26     0.010746625743252
  27    -0.021941775522657
  28    -0.00042262048472329
  29    0.00080931853200517
  30    0.00028098067181399
  31    0.0021253224800075
  32    -0.0037128994910249
  33    -0.0004565175829042
  34    3.7727589198181e-05
  35    -0.00050516601473296
  36    0.0082086686554153
  37     -0.01658959559138
  38    0.00011228467691894
  39    0.00040218638672672
  40    -9.1810842478473e-05
 Sym= A
 Ene=               9
 Spin= Alpha
 Occup=    0.00000
   1    4.7849625501369e-05
   2    -6.4308707231992e-05
   3    -1.0491507867967e-05
   4    -1.8171825520828e-05
   5    0.00010283040765289
   6    -0.00044798736763194
   7    0.0010797943266159
   8    2.4081280187363e-05
   9    4.1710045948116e-05
  10        1.000225159399
  11    0.0035070104900618
  12    -0.0071300314538227
  13    0.0003340557897669
  14    1.6640363897068e-05
  15    0.00012577994093038
  16    -8.6960602940497e-05
  17    0.00021324373225656
  18    5.5528511036612e-05
  19    -0.00017856376134972
  20    0.00016860984343281
  21    -8.696061824867e-05
  22    0.00021324376264703
  23    -0.00018240502288255
  24    -4.1192782515704e-05
  25    0.00016860985400212
  26    0.0035070106988049
  27    -0.0071300318994095
  28    -0.00015261694688014
  29    0.0002976210257084
  30    0.00012577993805081
  31    0.0024821153701252
  32    -0.0049119469800983
  33    -5.7351774593409e-05
  34    -9.9336187237772e-05
  35    0.00013471482318747
  36    -0.0044140673579618
  37    0.0090386243122222
  38    -0.00013651845184239
  39    -0.00023645689354793
  40    0.00025353052024332
 Sym= A
 Ene=              10
 Spin= Alpha
 Occup=    0.00000
   1    0.0035484610262716
   2    -0.0080269666571957
   3    -0.00020338471197566
   4    0.0018038734971705
   5    8.6960618248588e-05
   6    -0.013992030480505
   7     0.037142475939537
   8     0.012576962526503
   9    -0.00029068775914098
  10    0.0035070104900618
  11       1.2259502609402
  12     -0.45285167881082
  13    0.0010974730503794
  14    -0.0019008792696606
  15    0.00044798736763188
  16    -0.013992030624392
  17     0.037142477020022
  18    -0.0060367387173918
  19    -0.011037313467331
  20    0.0035070107146956
  21    0.00063687334778654
  22    -0.0012130209714708
  23    -0.0001690707158681
  24    0.0002928390470498
  25    4.7849625501225e-05
  26    0.0035484609754101
  27    -0.0080269664888939
  28    -0.0014605078702112
  29    0.0010780730480659
  30    8.6960622310689e-05
  31    -0.012308538378105
  32     0.031048279342765
  33    0.0047325781262129
  34    -0.0081970655987879
  35    -0.0033443056267157
  36    -0.0055399180556397
  37     0.011718227441796
  38    0.0015263403745755
  39    -0.0026436989737629
  40    0.0012219544912676
 Sym= A
 Ene=              11
 Spin= Alpha
 Occup=    0.00000
   1    -0.0080269666571956
   2     0.019172149553216
   3    0.00053862048536445
   4    -0.0043134509503027
   5    -0.00021324376264709
   6     0.037142475939536
   7     -0.10080408219022
   8    -0.025683611950941
   9    0.00060177225782578
  10    -0.0071300314538227
  11     -0.45285167881082
  12       1.2570345418177
  13    -0.0025991319851674
  14    0.0045018291559289
  15    -0.0010797943266158
  16     0.037142476990517
  17     -0.10080408624449
  18      0.01232065684617
  19     0.022543547683634
  20    -0.0071300319353079
  21    -0.0012130209714706
  22    0.0024985385983727
  23    0.00035254156823921
  24    -0.00061061986452757
  25    -6.4308707232202e-05
  26    -0.008026966478296
  27     0.019172149002575
  28    0.0034662477313023
  29    -0.0026231844009622
  30    -0.00021324376532188
  31     0.030709670947284
  32    -0.080856347555216
  33    -0.0095197498504549
  34     0.016488690072215
  35    0.0066527091610941
  36     0.011569170304678
  37    -0.026699905040517
  38    -0.0028617751200437
  39    0.0049567397122958
  40    -0.0018745173693497
 Sym= A
 Ene=              12
 Spin= Alpha
 Occup=    0.00000
   1    -0.00020338471197585
   2    0.00053862048536424
   3    0.00030051209597487
   4    -0.00013700223501375
   5    -0.00018240502288047
   6    -0.012576962526502
   7      0.02568361195094
   8    0.0010524163962916
   9    1.562313939721e-06
  10    0.0003340557897669
  11    0.0010974730503794
  12    -0.0025991319851674
  13       1.0010643472855
  14    0.00013759743478698
  15    2.4081280187396e-05
  16    0.0065402246505699
  17    -0.013362956886828
  18    0.00032312247536772
  19    0.00041949583575755
  20    -0.00018143889948723
  21    0.00016907071586834
  22    -0.00035254156823928
  23    -0.00014586737005187
  24    4.0813806591308e-06
  25    -1.0491507865798e-05
  26     0.001663892559123
  27    -0.0040048681601404
  28    -0.00060211512052265
  29    0.00065813427516141
  30    0.00012687649923414
  31    -0.0047392771148118
  32    0.0095780075811753
  33    0.00027253123146774
  34    -0.00011228466678435
  35    -5.3007007443682e-05
  36    -0.0012270555528225
  37     0.002143643600327
  38    0.00056486869694446
  39    0.00045651758419247
  40    -0.00029165774146481
 Sym= A
 Ene=              13
 Spin= Alpha
 Occup=    0.00000
   1    -0.0018038734971704
   2    0.0043134509503024
   3    0.00013700223501543
   4    -0.00090299089045929
   5    -4.1192782512833e-05
   6    -0.00029068775914117
   7    0.00060177225782516
   8    -1.5623139387071e-06
   9    8.002444892522e-05
  10    1.6640363897056e-05
  11    -0.0019008792696606
  12    0.0045018291559289
  13    0.00013759743478695
  14       1.0009054635269
  15    -4.171004594929e-05
  16     0.010746625743252
  17    -0.021941775522657
  18    0.00042262048471883
  19    0.00080931853200517
  20    -0.00028098067181256
  21    -0.00029283904704984
  22    0.00061061986452762
  23    4.081380660331e-06
  24    -0.00015058013568529
  25    1.817182552421e-05
  26    -0.00072580040397489
  27    0.0016902663943166
  28    0.00038412982209909
  29    -3.6365613731844e-07
  30    0.00013737098320717
  31    0.0082086686554145
  32     -0.01658959559138
  33    -0.00011228467692102
  34    0.00040218638672041
  35    9.1810842484087e-05
  36    0.0021253224800072
  37    -0.0037128994910247
  38    0.00045651758290867
  39    3.7727589200302e-05
  40    0.00050516601473919
 Sym= A
 Ene=              14
 Spin= Alpha
 Occup=    0.00000
   1    8.6960618248924e-05
   2    -0.00021324376264729
   3    -0.00018240502288352
   4    4.1192782512486e-05
   5    0.00016860985400107
   6    -0.0035070104900619
   7    0.0071300314538223
   8    0.00033405578976891
   9    -1.6640363895064e-05
  10    0.0001257799409304
  11    0.00044798736763188
  12    -0.0010797943266158
  13    2.4081280187404e-05
  14    -4.1710045949292e-05
  15        1.000225159399
  16    -0.0035070106988049
  17    0.0071300318994095
  18    -0.00015261694687727
  19    -0.00029762102571012
  20    0.00012577993805037
  21    -4.7849625501821e-05
  22    6.4308707232037e-05
  23    -1.0491507869475e-05
  24    1.8171825522446e-05
  25    0.00010283040765273
  26    8.6960602940441e-05
  27    -0.00021324373225666
  28    5.5528511040524e-05
  29    0.00017856376134966
  30    0.0001686098434307
  31    0.0044140673579614
  32    -0.009038624312222
  33    -0.00013651845184295
  34    0.00023645689354813
  35    0.00025353052024092
  36    -0.0024821153701253
  37    0.0049119469800985
  38    -5.7351774596038e-05
  39    9.9336187237771e-05
  40    0.0001347148231897
 Sym= A
 Ene=              15
 Spin= Alpha
 Occup=    0.00000
   1    -0.013992030624395
   2      0.03714247699052
   3    0.0065402246505699
   4    -0.010746625743252
   5    -0.0035070106988052
   6     0.003548460975408
   7    -0.008026966478292
   8    -0.0016638925591227
   9    -0.00072580040397482
  10    -8.6960602940497e-05
  11    -0.013992030624392
  12     0.037142476990517
  13    0.0065402246505699
  14     0.010746625743252
  15    -0.0035070106988049
  16       1.2259502609295
  17     -0.45285167881338
  18    0.0021949462484083
  19    1.699073932934e-17
  20    -0.00044798742025857
  21    0.0035484609754105
  22    -0.0080269664782955
  23    -0.001663892559123
  24    0.00072580040397494
  25    -8.6960602940932e-05
  26    0.00063687321736871
  27    -0.0012130206673139
  28    -0.00033814133608923
  29    -1.7094318882457e-17
  30    -4.7849632374518e-05
  31    -0.0055399176942186
  32     0.011718226490105
  33    0.0030526803905191
  34    -2.6982538933583e-16
  35    -0.0012219543082569
  36    -0.012308538161663
  37     0.031048278349731
  38     0.009465155559437
  39    4.8159523329282e-17
  40    0.0033443053815394
 Sym= A
 Ene=              16
 Spin= Alpha
 Occup=    0.00000
   1     0.037142477020025
   2      -0.1008040862445
   3    -0.013362956886827
   4     0.021941775522657
   5    0.0071300318994094
   6    -0.0080269664888899
   7     0.019172149002573
   8    0.0040048681601404
   9    0.0016902663943164
  10    0.00021324373225656
  11     0.037142477020022
  12     -0.10080408624449
  13    -0.013362956886828
  14    -0.021941775522657
  15    0.0071300318994095
  16     -0.45285167881338
  17       1.2570345419055
  18    -0.0051982643788029
  19    1.4720940917549e-16
  20    0.0010797944695707
  21    -0.0080269664888935
  22     0.019172149002576
  23    0.0040048681601406
  24    -0.0016902663943166
  25    0.00021324373225651
  26    -0.0012130206673141
  27     0.002498537857666
  28    0.00070508291832396
  29    -2.7250665150022e-16
  30    6.4308728910667e-05
  31     0.011569169360578
  32    -0.026699902485352
  33    -0.0057235494954679
  34    1.2631837447001e-16
  35    0.0018745170041944
  36     0.030709669916688
  37    -0.080856344076794
  38    -0.019039498247607
  39    5.4997675231741e-17
  40    -0.0066527086461275
 Sym= A
 Ene=              17
 Spin= Alpha
 Occup=    0.00000
   1    -0.0060367387173922
   2     0.012320656846171
   3    0.00032312247536765
   4    -0.00042262048472026
   5    -0.00015261694687913
   6    0.0014605078702114
   7    -0.003466247731302
   8    -0.00060211512051767
   9    -0.00038412982209276
  10    5.5528511036613e-05
  11    -0.0060367387173918
  12      0.01232065684617
  13    0.00032312247536774
  14    0.0004226204847188
  15    -0.00015261694687726
  16    0.0021949462484083
  17    -0.0051982643788029
  18       1.0008260215704
  19    -1.3845915446899e-16
  20    -4.8162631884731e-05
  21    0.0014605078702111
  22    -0.0034662477313024
  23    -0.0006021151205149
  24    0.00038412982208687
  25    5.552851103848e-05
  26    0.00033814133608922
  27    -0.00070508291832412
  28    -0.00015293648441788
  29    -2.01227153594e-16
  30    2.0983008049051e-05
  31    -0.0024541107880647
  32    0.0042872865644996
  33    -0.00022584298985863
  34    9.6450741735953e-17
  35    0.0005833154711511
  36    -0.0094785536006814
  37     0.019156013878828
  38    0.00046701387809046
  39    4.9674671450145e-15
  40    0.00010601398616184
 Sym= A
 Ene=              18
 Spin= Alpha
 Occup=    0.00000
   1     0.011037313467331
   2    -0.022543547683634
   3    -0.00041949583575854
   4    0.00080931853200497
   5    0.00029762102571084
   6    0.0010780730480656
   7    -0.0026231844009615
   8    -0.00065813427517037
   9    -3.6365612965458e-07
  10    -0.00017856376134973
  11    -0.011037313467331
  12     0.022543547683634
  13    0.00041949583575755
  14    0.00080931853200516
  15    -0.0002976210257101
  16    1.6990729178753e-17
  17    1.4720940942672e-16
  18    -1.3845910078078e-16
  19       1.0011437892682
  20    3.0753334202956e-15
  21    -0.0010780730480662
  22    0.0026231844009621
  23    0.00065813427516893
  24    -3.6365613209818e-07
  25    0.00017856376135026
  26    -2.5013280723611e-16
  27    1.2257957495963e-16
  28    1.1548434216076e-15
  29    -0.00014351098362835
  30    -1.049024648843e-15
  31    5.9364771579083e-17
  32    -4.3582511130348e-16
  33    1.2894114099946e-15
  34    0.0008284392816715
  35    7.267376611464e-16
  36    1.6611104556617e-16
  37    -6.8533754698979e-16
  38    3.8535983803423e-16
  39    0.00020770366192839
  40    3.2225249894145e-15
 Sym= A
 Ene=              19
 Spin= Alpha
 Occup=    0.00000
   1     0.003507010714695
   2    -0.0071300319353077
   3    -0.00018143889949245
   4    0.00028098067181008
   5    0.00012577993805017
   6    -8.6960622310437e-05
   7    0.00021324376532198
   8    0.00012687649923366
   9    -0.00013737098320268
  10    0.00016860984343279
  11    0.0035070107146956
  12    -0.0071300319353079
  13    -0.00018143889948724
  14    -0.00028098067181256
  15    0.00012577993805041
  16    -0.00044798742025857
  17    0.0010797944695707
  18    -4.8162631884731e-05
  19    3.0753334721547e-15
  20       1.0002251593921
  21    -8.6960622311296e-05
  22    0.0002132437653219
  23    0.00012687649923585
  24    0.00013737098320596
  25    0.00016860984343133
  26    4.7849632374007e-05
  27    -6.4308728910694e-05
  28    2.0983008048813e-05
  29    3.3248439491711e-15
  30    0.00010283039427443
  31    0.0024821151487399
  32    -0.0049119465104765
  33    0.00011470356621848
  34    1.1116768043979e-15
  35    0.0001347147984227
  36    -0.0044140671105799
  37    0.0090386237973641
  38    0.00027303686952662
  39    2.6787820613073e-15
  40    0.00025353050324882
 Sym= A
 Ene=              20
 Spin= Alpha
 Occup=    0.00000
   1    -0.013992030480506
   2     0.037142475939537
   3    -0.012576962526503
   4    0.00029068775914049
   5    -0.0035070104900621
   6    0.0035484610262717
   7    -0.0080269666571949
   8    0.00020338471197559
   9    -0.0018038734971707
  10    -8.696061824867e-05
  11    0.00063687334778656
  12    -0.0012130209714706
  13    0.00016907071586835
  14    -0.00029283904704985
  15    -4.7849625501821e-05
  16    0.0035484609754106
  17    -0.0080269664888935
  18    0.0014605078702111
  19    -0.0010780730480662
  20    -8.6960622311297e-05
  21       1.2259502609402
  22     -0.45285167881082
  23    -0.0010974730503798
  24    0.0019008792696606
  25    -0.00044798736763195
  26    -0.013992030624392
  27     0.037142477020022
  28    0.0060367387173916
  29     0.011037313467331
  30    -0.0035070107146949
  31    -0.0055399180556414
  32     0.011718227441794
  33    -0.0015263403745758
  34    0.0026436989737632
  35    -0.0012219544912678
  36    -0.012308538378104
  37     0.031048279342765
  38    -0.0047325781262117
  39    0.0081970655987876
  40    0.0033443056267156
 Sym= A
 Ene=              21
 Spin= Alpha
 Occup=    0.00000
   1     0.037142475939537
   2     -0.10080408219022
   3     0.025683611950941
   4    -0.00060177225782573
   5    0.0071300314538225
   6    -0.0080269666571949
   7     0.019172149553216
   8    -0.00053862048536451
   9    0.0043134509503031
  10    0.00021324376264703
  11    -0.0012130209714709
  12    0.0024985385983727
  13    -0.00035254156823928
  14    0.00061061986452762
  15    6.4308707232036e-05
  16    -0.0080269664782955
  17     0.019172149002576
  18    -0.0034662477313024
  19    0.0026231844009621
  20    0.0002132437653219
  21     -0.45285167881082
  22       1.2570345418177
  23    0.0025991319851675
  24    -0.0045018291559289
  25    0.0010797943266158
  26     0.037142476990517
  27     -0.10080408624449
  28     -0.01232065684617
  29    -0.022543547683634
  30    0.0071300319353077
  31     0.011569170304676
  32    -0.026699905040518
  33    0.0028617751200435
  34    -0.0049567397122961
  35    0.0018745173693494
  36     0.030709670947284
  37    -0.080856347555215
  38    0.0095197498504547
  39    -0.016488690072215
  40    -0.0066527091610941
 Sym= A
 Ene=              22
 Spin= Alpha
 Occup=    0.00000
   1     0.012576962526503
   2     -0.02568361195094
   3    0.0010524163962912
   4    1.5623139379155e-06
   5    0.00033405578976767
   6    0.00020338471197505
   7    -0.00053862048536413
   8    0.00030051209598302
   9    -0.00013700223501967
  10    -0.00018240502288255
  11    -0.0001690707158681
  12    0.00035254156823921
  13    -0.00014586737005189
  14    4.081380660324e-06
  15    -1.0491507869477e-05
  16    -0.001663892559123
  17    0.0040048681601406
  18    -0.00060211512051489
  19    0.00065813427516894
  20    0.00012687649923584
  21    -0.0010974730503798
  22    0.0025991319851675
  23       1.0010643472855
  24    0.00013759743478401
  25    2.408128018682e-05
  26     -0.00654022465057
  27     0.013362956886827
  28    0.00032312247536928
  29    0.00041949583575893
  30    -0.00018143889949251
  31    0.0012270555528226
  32    -0.0021436436003269
  33    0.00056486869694545
  34    0.00045651758419037
  35    -0.00029165774146438
  36    0.0047392771148122
  37    -0.0095780075811756
  38    0.00027253123146238
  39    -0.00011228466679058
  40    -5.3007007436411e-05
 Sym= A
 Ene=              23
 Spin= Alpha
 Occup=    0.00000
   1    0.00029068775914053
   2    -0.0006017722578254
   3    -1.5623139366678e-06
   4    8.0024448927589e-05
   5     1.66403638985e-05
   6    0.0018038734971707