[Molden Format]
made by pyscf v[2.3.0]
[Atoms] (AU)
He   1   2     1.58445976640282    -1.58445976640282     1.58445976640282
He   2   2     1.58445976640282    -1.58445976640282    -1.58445976640282
He   3   2     1.58445976640282     1.58445976640282    -1.58445976640282
He   4   2     1.58445976640282     1.58445976640282     1.58445976640282
He   5   2    -1.58445976640282     1.58445976640282     1.58445976640282
He   6   2    -1.58445976640282     1.58445976640282    -1.58445976640282
He   7   2    -1.58445976640282    -1.58445976640282    -1.58445976640282
He   8   2    -1.58445976640282    -1.58445976640282     1.58445976640282
[GTO]
1 0
 s    3 1.00
                 38.36   0.040176075383249
                  5.77    0.26136807476949
                  1.24    0.79307123949544
 s    1 1.00
                0.2976                   1
 p    1 1.00
                 1.275                   1

2 0
 s    3 1.00
                 38.36   0.040176075383249
                  5.77    0.26136807476949
                  1.24    0.79307123949544
 s    1 1.00
                0.2976                   1
 p    1 1.00
                 1.275                   1

3 0
 s    3 1.00
                 38.36   0.040176075383249
                  5.77    0.26136807476949
                  1.24    0.79307123949544
 s    1 1.00
                0.2976                   1
 p    1 1.00
                 1.275                   1

4 0
 s    3 1.00
                 38.36   0.040176075383249
                  5.77    0.26136807476949
                  1.24    0.79307123949544
 s    1 1.00
                0.2976                   1
 p    1 1.00
                 1.275                   1

5 0
 s    3 1.00
                 38.36   0.040176075383249
                  5.77    0.26136807476949
                  1.24    0.79307123949544
 s    1 1.00
                0.2976                   1
 p    1 1.00
                 1.275                   1

6 0
 s    3 1.00
                 38.36   0.040176075383249
                  5.77    0.26136807476949
                  1.24    0.79307123949544
 s    1 1.00
                0.2976                   1
 p    1 1.00
                 1.275                   1

7 0
 s    3 1.00
                 38.36   0.040176075383249
                  5.77    0.26136807476949
                  1.24    0.79307123949544
 s    1 1.00
                0.2976                   1
 p    1 1.00
                 1.275                   1

8 0
 s    3 1.00
                 38.36   0.040176075383249
                  5.77    0.26136807476949
                  1.24    0.79307123949544
 s    1 1.00
                0.2976                   1
 p    1 1.00
                 1.275                   1

[5d]
[7f]
[9g]

[MO]
 Sym= A
 Ene=               0
 Spin= Alpha
 Occup=    1.00000
   1       1.2390352976921
   2     -0.48633332305776
   3    0.0046614637997644
   4    -0.0046614637997643
   5    0.0046614637997644
   6    -0.012385061039374
   7     0.055410795403231
   8    -0.00020256294012284
   9    0.00020256294012291
  10     0.028247907224592
  11    0.00043414819339193
  12    -0.0061888418225994
  13    1.5078239513632e-05
  14    0.0014274969374274
  15    -0.0014274969374274
  16    -0.012385061039374
  17      0.05541079540323
  18    -0.00020256294012293
  19    -0.028247907224592
  20    -0.0002025629401229
  21    0.00043414819339212
  22    -0.0061888418225998
  23    -0.0014274969374274
  24    0.0014274969374274
  25    1.5078239513663e-05
  26    -8.2065525144751e-05
  27    0.00087229214420162
  28    4.508183049692e-05
  29    -4.5081830496874e-05
  30    4.5081830496971e-05
  31    0.0004341481933918
  32    -0.0061888418225995
  33    -0.0014274969374274
  34    -1.5078239513645e-05
  35    -0.0014274969374274
  36    -0.012385061039374
  37      0.05541079540323
  38     0.028247907224592
  39    0.00020256294012294
  40    -0.00020256294012286
 Sym= A
 Ene=               1
 Spin= Alpha
 Occup=    1.00000
   1     -0.48633332305776
   2       1.3542859075056
   3    -0.013528562824426
   4     0.013528562824426
   5    -0.013528562824426
   6     0.055410795403231
   7     -0.19215992288943
   8    0.0014999118669725
   9    -0.0014999118669726
  10    -0.063210637448751
  11    -0.0061888418225996
  12     0.031309434503009
  13    -0.00018668196086488
  14    -0.0070127053022743
  15    0.0070127053022742
  16      0.05541079540323
  17     -0.19215992288943
  18    0.0014999118669726
  19     0.063210637448751
  20    0.0014999118669726
  21    -0.0061888418225997
  22      0.03130943450301
  23    0.0070127053022743
  24    -0.0070127053022742
  25    -0.00018668196086489
  26    0.00087229214420148
  27    -0.0060877452405561
  28    -0.00075807669813941
  29    0.00075807669813941
  30    -0.00075807669813947
  31    -0.0061888418225994
  32     0.031309434503009
  33    0.0070127053022743
  34    0.00018668196086489
  35    0.0070127053022742
  36      0.05541079540323
  37     -0.19215992288943
  38    -0.063210637448751
  39    -0.0014999118669726
  40    0.0014999118669726
 Sym= A
 Ene=               2
 Spin= Alpha
 Occup=    1.00000
   1    0.0046614637997644
   2    -0.013528562824426
   3       1.0041674266607
   4    -8.7554545307425e-05
   5    8.7554545308482e-05
   6    -0.00020256294012291
   7    0.0014999118669728
   8    -0.0010042316550347
   9    4.3546424320201e-06
  10    0.00059439595316983
  11    1.5078239513229e-05
  12    -0.00018668196086557
  13    5.2136662771623e-06
  14    2.3574316524939e-05
  15    -2.357431652436e-05
  16    -0.00020256294012322
  17    0.0014999118669728
  18    -0.0010042316550323
  19    -0.00059439595317164
  20    -4.3546424302345e-06
  21     0.001427496937428
  22    -0.0070127053022741
  23    -5.0742579849843e-05
  24    0.0039590455027993
  25    2.3574316522098e-05
  26    -4.5081830496791e-05
  27    0.00075807669813949
  28    2.2387947015031e-06
  29    -0.00017269461102591
  30    0.00017269461102637
  31    0.0014274969374274
  32    -0.0070127053022743
  33    -5.0742579848061e-05
  34    -2.3574316523705e-05
  35    -0.0039590455027994
  36    -0.028247907224591
  37      0.06321063744875
  38     0.010805369355221
  39    0.00059439595316844
  40    -0.00059439595317098
 Sym= A
 Ene=               3
 Spin= Alpha
 Occup=    1.00000
   1    -0.0046614637997643
   2     0.013528562824426
   3    -8.7554545307425e-05
   4       1.0041674266607
   5    -8.7554545310654e-05
   6    0.0002025629401222
   7    -0.0014999118669724
   8    4.3546424288681e-06
   9    -0.0010042316550309
  10    -0.00059439595316945
  11    -0.0014274969374278
  12    0.0070127053022739
  13    -2.3574316523135e-05
  14    -5.0742579849637e-05
  15    0.0039590455027973
  16     0.028247907224592
  17     -0.06321063744875
  18    0.0005943959531734
  19     0.010805369355222
  20    0.00059439595316998
  21    -0.0014274969374271
  22    0.0070127053022741
  23    0.0039590455027972
  24    -5.0742579851783e-05
  25    -2.3574316524481e-05
  26    4.5081830496765e-05
  27    -0.0007580766981393
  28    -0.00017269461102605
  29    2.2387947000203e-06
  30    -0.00017269461102773
  31    -1.5078239513383e-05
  32    0.0001866819608651
  33    2.3574316526234e-05
  34    5.2136662754718e-06
  35    2.3574316523476e-05
  36    0.00020256294012276
  37    -0.0014999118669726
  38    -0.00059439595317169
  39    -0.0010042316550338
  40    4.3546424315383e-06
 Sym= A
 Ene=               4
 Spin= Alpha
 Occup=    1.00000
   1    0.0046614637997644
   2    -0.013528562824426
   3    8.7554545308483e-05
   4    -8.7554545310652e-05
   5       1.0041674266607
   6    -0.028247907224592
   7      0.06321063744875
   8    -0.00059439595317072
   9    0.00059439595317139
  10     0.010805369355224
  11    0.0014274969374274
  12    -0.0070127053022742
  13    2.3574316522713e-05
  14    0.0039590455027984
  15    -5.0742579851202e-05
  16    -0.00020256294012221
  17    0.0014999118669728
  18    -4.3546424285621e-06
  19    -0.00059439595316939
  20    -0.0010042316550341
  21    1.5078239513374e-05
  22    -0.00018668196086546
  23    -2.3574316525764e-05
  24    2.3574316521846e-05
  25    5.2136662762349e-06
  26    -4.5081830496986e-05
  27    0.00075807669813946
  28    0.00017269461102619
  29    -0.00017269461102783
  30    2.2387946994958e-06
  31    0.0014274969374278
  32    -0.0070127053022742
  33    -0.0039590455027989
  34    -2.3574316523803e-05
  35    -5.0742579850018e-05
  36    -0.00020256294012301
  37    0.0014999118669727
  38    0.00059439595316971
  39    4.3546424322331e-06
  40    -0.0010042316550319
 Sym= A
 Ene=               5
 Spin= Alpha
 Occup=    1.00000
   1    -0.012385061039374
   2     0.055410795403231
   3    -0.00020256294012291
   4    0.00020256294012219
   5    -0.028247907224592
   6       1.2390352976921
   7     -0.48633332305776
   8     0.004661463799763
   9    -0.0046614637997625
  10    -0.0046614637997638
  11    -0.012385061039374
  12     0.055410795403229
  13    -0.00020256294012412
  14    -0.028247907224592
  15    0.00020256294012222
  16    0.00043414819339275
  17    -0.0061888418226001
  18    1.5078239513054e-05
  19    0.0014274969374278
  20     0.001427496937426
  21    -8.2065525146432e-05
  22    0.00087229214420345
  23    4.5081830495834e-05
  24    -4.5081830496857e-05
  25    -4.5081830496567e-05
  26     0.000434148193392
  27    -0.0061888418225999
  28    -0.0014274969374271
  29    0.0014274969374271
  30    -1.5078239513584e-05
  31    -0.012385061039374
  32      0.05541079540323
  33     0.028247907224592
  34    0.00020256294012274
  35    0.00020256294012309
  36    0.00043414819339276
  37    -0.0061888418226009
  38    -0.001427496937427
  39    -1.5078239511828e-05
  40    0.0014274969374273
 Sym= A
 Ene=               6
 Spin= Alpha
 Occup=    1.00000
   1     0.055410795403231
   2     -0.19215992288943
   3    0.0014999118669728
   4    -0.0014999118669724
   5      0.06321063744875
   6     -0.48633332305776
   7       1.3542859075056
   8    -0.013528562824426
   9     0.013528562824426
  10     0.013528562824426
  11      0.05541079540323
  12     -0.19215992288943
  13    0.0014999118669725
  14      0.06321063744875
  15    -0.0014999118669727
  16    -0.0061888418225998
  17      0.03130943450301
  18    -0.00018668196086516
  19    -0.0070127053022741
  20    -0.0070127053022742
  21    0.00087229214420335
  22    -0.006087745240558
  23    -0.00075807669813942
  24    0.00075807669813958
  25    0.00075807669813961
  26    -0.0061888418225996
  27      0.03130943450301
  28    0.0070127053022741
  29    -0.0070127053022742
  30    0.00018668196086516
  31      0.05541079540323
  32     -0.19215992288943
  33     -0.06321063744875
  34    -0.0014999118669726
  35    -0.0014999118669728
  36    -0.006188841822601
  37     0.031309434503011
  38    0.0070127053022743
  39    0.00018668196086513
  40    -0.0070127053022743
 Sym= A
 Ene=               7
 Spin= Alpha
 Occup=    1.00000
   1    -0.00020256294012284
   2    0.0014999118669725
   3    -0.0010042316550346
   4    4.3546424288807e-06
   5    -0.00059439595317072
   6     0.004661463799763
   7    -0.013528562824426
   8       1.0041674266607
   9    -8.7554545307863e-05
  10    -8.75545453066e-05
  11    -0.00020256294012235
  12    0.0014999118669727
  13    -0.0010042316550348
  14    -0.00059439595317444
  15    4.3546424320122e-06
  16    1.5078239512837e-05
  17    -0.00018668196086519
  18    5.2136662771358e-06
  19    2.357431652675e-05
  20    2.3574316528097e-05
  21    -4.5081830496853e-05
  22    0.0007580766981396
  23    2.2387947034739e-06
  24    -0.00017269461103075
  25    -0.00017269461102964
  26    0.0014274969374268
  27    -0.0070127053022742
  28    -5.074257984929e-05
  29    0.0039590455027998
  30    -2.3574316522632e-05
  31    -0.028247907224591
  32      0.06321063744875
  33     0.010805369355229
  34    0.00059439595317251
  35    0.00059439595317551
  36    0.0014274969374259
  37    -0.0070127053022739
  38    -5.0742579847378e-05
  39    -2.3574316522716e-05
  40    0.0039590455027984
 Sym= A
 Ene=               8
 Spin= Alpha
 Occup=    0.00000
   1    0.00020256294012291
   2    -0.0014999118669726
   3    4.3546424320414e-06
   4    -0.0010042316550309
   5    0.00059439595317136
   6    -0.0046614637997625
   7     0.013528562824426
   8    -8.7554545307853e-05
   9       1.0041674266607
  10    8.7554545306031e-05
  11     0.028247907224592
  12     -0.06321063744875
  13    0.00059439595317483
  14     0.010805369355231
  15    -0.00059439595317657
  16    -0.0014274969374265
  17     0.007012705302274
  18    -2.3574316527174e-05
  19    -5.0742579849795e-05
  20    -0.0039590455027996
  21    4.5081830495538e-05
  22    -0.00075807669813991
  23    -0.00017269461102905
  24    2.2387947060847e-06
  25    0.00017269461102685
  26    -0.0014274969374271
  27    0.0070127053022746
  28    0.0039590455027928
  29    -5.0742579850745e-05
  30    2.3574316528115e-05
  31    0.00020256294012253
  32    -0.0014999118669728
  33    -0.00059439595317425
  34    -0.0010042316550352
  35    -4.3546424286566e-06
  36    -1.5078239512559e-05
  37    0.00018668196086534
  38    2.3574316524762e-05
  39    5.2136662788516e-06
  40    -2.3574316525062e-05
 Sym= A
 Ene=               9
 Spin= Alpha
 Occup=    0.00000
   1     0.028247907224592
   2    -0.063210637448751
   3    0.00059439595316982
   4    -0.00059439595316941
   5     0.010805369355224
   6    -0.0046614637997638
   7     0.013528562824426
   8    -8.7554545306595e-05
   9    8.7554545306046e-05
  10       1.0041674266607
  11    0.00020256294012322
  12    -0.0014999118669726
  13    4.3546424280972e-06
  14    0.00059439595317095
  15    -0.0010042316550342
  16    -0.0014274969374276
  17    0.0070127053022742
  18    -2.3574316525851e-05
  19    -0.0039590455028031
  20    -5.0742579851079e-05
  21    4.5081830496998e-05
  22    -0.00075807669813958
  23    -0.00017269461102738
  24    0.00017269461103078
  25    2.2387946995228e-06
  26    -1.5078239513658e-05
  27    0.00018668196086477
  28    2.3574316522617e-05
  29    -2.3574316523656e-05
  30    5.2136662758122e-06
  31    0.00020256294012303
  32    -0.0014999118669727
  33    -0.00059439595317058
  34    -4.3546424291448e-06
  35    -0.0010042316550322
  36    -0.0014274969374274
  37    0.0070127053022742
  38    0.0039590455028004
  39    2.3574316521887e-05
  40    -5.0742579849797e-05
 Sym= A
 Ene=              10
 Spin= Alpha
 Occup=    0.00000
   1    0.00043414819339192
   2    -0.0061888418225996
   3    1.5078239513229e-05
   4    -0.0014274969374278
   5    0.0014274969374274
   6    -0.012385061039374
   7      0.05541079540323
   8    -0.00020256294012234
   9     0.028247907224592
  10    0.00020256294012321
  11       1.2390352976921
  12     -0.48633332305775
  13    0.0046614637997629
  14    0.0046614637997618
  15    -0.0046614637997614
  16    -0.012385061039373
  17     0.055410795403229
  18    -0.00020256294012224
  19    -0.00020256294012356
  20    -0.028247907224592
  21    0.00043414819339327
  22    -0.0061888418226012
  23    -0.0014274969374274
  24    1.5078239512429e-05
  25    0.0014274969374274
  26    -0.012385061039374
  27     0.055410795403231
  28     0.028247907224594
  29    -0.00020256294012312
  30    0.00020256294012356
  31    0.00043414819339393
  32    -0.0061888418226019
  33    -0.0014274969374263
  34    -0.001427496937427
  35    -1.5078239513672e-05
  36    -8.2065525148104e-05
  37    0.00087229214420489
  38    4.5081830496376e-05
  39    4.5081830496086e-05
  40    -4.5081830496732e-05
 Sym= A
 Ene=              11
 Spin= Alpha
 Occup=    0.00000
   1    -0.0061888418225993
   2     0.031309434503009
   3    -0.00018668196086557
   4    0.0070127053022739
   5    -0.0070127053022742
   6     0.055410795403229
   7     -0.19215992288943
   8    0.0014999118669727
   9     -0.06321063744875
  10    -0.0014999118669726
  11     -0.48633332305775
  12       1.3542859075056
  13    -0.013528562824426
  14    -0.013528562824426
  15     0.013528562824426
  16     0.055410795403229
  17     -0.19215992288943
  18     0.001499911866973
  19    0.0014999118669725
  20      0.06321063744875
  21    -0.006188841822601
  22     0.031309434503011
  23     0.007012705302274
  24    -0.00018668196086537
  25    -0.0070127053022743
  26      0.05541079540323
  27     -0.19215992288943
  28     -0.06321063744875
  29    0.0014999118669728
  30    -0.0014999118669728
  31    -0.006188841822602
  32     0.031309434503012
  33    0.0070127053022741
  34    0.0070127053022743
  35    0.00018668196086548
  36    0.00087229214420476
  37    -0.0060877452405603
  38    -0.00075807669813967
  39    -0.00075807669813966
  40    0.00075807669813984
 Sym= A
 Ene=              12
 Spin= Alpha
 Occup=    0.00000
   1    1.5078239513623e-05
   2    -0.00018668196086488
   3    5.2136662771699e-06
   4    -2.3574316523148e-05
   5    2.3574316522706e-05
   6    -0.00020256294012412
   7    0.0014999118669725
   8    -0.0010042316550348
   9    0.00059439595317484
  10    4.3546424281036e-06
  11    0.0046614637997629
  12    -0.013528562824426
  13       1.0041674266607
  14    8.7554545299362e-05
  15    -8.7554545303954e-05
  16    -0.0002025629401229
  17    0.0014999118669726
  18    -0.0010042316550311
  19    -4.3546424275277e-06
  20    -0.00059439595317504
  21    0.0014274969374273
  22    -0.0070127053022745
  23    -5.0742579852802e-05
  24    2.357431652572e-05
  25    0.0039590455027927
  26    -0.028247907224594
  27      0.06321063744875
  28     0.010805369355225
  29    -0.00059439595317165
  30    0.00059439595317307
  31    0.0014274969374272
  32    -0.0070127053022743
  33    -5.0742579849027e-05
  34    -0.0039590455027965
  35    -2.3574316525136e-05
  36    -4.5081830496057e-05
  37    0.00075807669813946
  38    2.2387947013221e-06
  39    0.00017269461103023
  40    -0.00017269461102766
 Sym= A
 Ene=              13
 Spin= Alpha
 Occup=    0.00000
   1    0.0014274969374274
   2    -0.0070127053022743
   3    2.3574316524919e-05
   4    -5.0742579849644e-05
   5    0.0039590455027984
   6    -0.028247907224592
   7      0.06321063744875
   8    -0.00059439595317447
   9     0.010805369355231
  10    0.00059439595317097
  11    0.0046614637997618
  12    -0.013528562824426
  13    8.7554545299364e-05
  14       1.0041674266607
  15    -8.7554545306152e-05
  16    -0.00020256294012251
  17    0.0014999118669727
  18    -4.3546424298122e-06
  19    -0.0010042316550318
  20    -0.00059439595317672
  21    1.5078239512701e-05
  22    -0.00018668196086537
  23    -2.3574316527201e-05
  24    5.2136662786877e-06
  25    2.3574316527786e-05
  26    -0.00020256294012318
  27    0.0014999118669726
  28    0.00059439595317444
  29    -0.0010042316550349
  30    4.3546424286552e-06
  31     0.001427496937427
  32    -0.0070127053022743
  33    -0.0039590455028001
  34    -5.074257985068e-05
  35    -2.3574316524999e-05
  36    -4.5081830496157e-05
  37    0.00075807669813958
  38    0.00017269461103038
  39    2.2387947062818e-06
  40    -0.00017269461102719
 Sym= A
 Ene=              14
 Spin= Alpha
 Occup=    0.00000
   1    -0.0014274969374274
   2    0.0070127053022742
   3    -2.3574316524364e-05
   4    0.0039590455027973
   5    -5.0742579851173e-05
   6    0.00020256294012221
   7    -0.0014999118669727
   8    4.3546424320051e-06
   9    -0.00059439595317657
  10    -0.0010042316550342
  11    -0.0046614637997614
  12     0.013528562824426
  13    -8.755454530393e-05
  14    -8.755454530616e-05
  15       1.0041674266607
  16     0.028247907224592
  17     -0.06321063744875
  18    0.00059439595317166
  19    0.00059439595317037
  20     0.010805369355233
  21    -0.0014274969374272
  22     0.007012705302274
  23    0.0039590455028008
  24    -2.3574316523698e-05
  25    -5.0742579848243e-05
  26    0.00020256294012308
  27    -0.0014999118669725
  28    -0.00059439595317572
  29     4.35464242967e-06
  30    -0.0010042316550329
  31    -1.507823951291e-05
  32    0.00018668196086534
  33    2.3574316528116e-05
  34    2.3574316525875e-05
  35    5.2136662749801e-06
  36    4.5081830496939e-05
  37    -0.00075807669813974
  38    -0.00017269461102835
  39    -0.00017269461103019
  40    2.2387947021928e-06
 Sym= A
 Ene=              15
 Spin= Alpha
 Occup=    0.00000
   1    -0.012385061039374
   2      0.05541079540323
   3    -0.00020256294012321
   4     0.028247907224592
   5    -0.00020256294012221
   6    0.00043414819339277
   7    -0.0061888418225998
   8    1.507823951283e-05
   9    -0.0014274969374265
  10    -0.0014274969374276
  11    -0.012385061039373
  12     0.055410795403229
  13    -0.0002025629401229
  14    -0.00020256294012251
  15     0.028247907224592
  16       1.2390352976921
  17     -0.48633332305776
  18    0.0046614637997622
  19     0.004661463799764
  20    0.0046614637997628
  21    -0.012385061039374
  22      0.05541079540323
  23     0.028247907224592
  24    -0.000202562940123
  25    -0.00020256294012342
  26    0.00043414819339176
  27    -0.0061888418225996
  28    -0.0014274969374272
  29    1.5078239513466e-05
  30    -0.0014274969374269
  31    -8.2065525147464e-05
  32    0.00087229214420425
  33    4.5081830495685e-05
  34    4.5081830496674e-05
  35    4.5081830496943e-05
  36    0.00043414819339402
  37    -0.0061888418226017
  38    -0.0014274969374273
  39    -0.0014274969374264
  40    1.5078239512591e-05
 Sym= A
 Ene=              16
 Spin= Alpha
 Occup=    0.00000
   1      0.05541079540323
   2     -0.19215992288943
   3    0.0014999118669728
   4     -0.06321063744875
   5    0.0014999118669728
   6    -0.0061888418226001
   7      0.03130943450301
   8    -0.00018668196086518
   9     0.007012705302274
  10    0.0070127053022742
  11     0.055410795403229
  12     -0.19215992288943
  13    0.0014999118669726
  14    0.0014999118669727
  15     -0.06321063744875
  16     -0.48633332305776
  17       1.3542859075056
  18    -0.013528562824426
  19    -0.013528562824426
  20    -0.013528562824426
  21      0.05541079540323
  22     -0.19215992288943
  23     -0.06321063744875
  24    0.0014999118669728
  25    0.0014999118669724
  26    -0.0061888418225994
  27     0.031309434503009
  28     0.007012705302274
  29    -0.00018668196086529
  30    0.0070127053022743
  31    0.00087229214420416
  32    -0.0060877452405594
  33    -0.00075807669813966
  34    -0.00075807669813949
  35    -0.00075807669813973
  36    -0.0061888418226017
  37     0.031309434503012
  38    0.0070127053022742
  39    0.0070127053022744
  40    -0.00018668196086534
 Sym= A
 Ene=              17
 Spin= Alpha
 Occup=    0.00000
   1    -0.00020256294012293
   2    0.0014999118669726
   3    -0.0010042316550323
   4    0.00059439595317343
   5    -4.354642428594e-06
   6    1.507823951306e-05
   7    -0.00018668196086517
   8    5.2136662771022e-06
   9    -2.3574316527168e-05
  10    -2.3574316525854e-05
  11    -0.00020256294012224
  12     0.001499911866973
  13    -0.001004231655031
  14    -4.3546424297824e-06
  15    0.00059439595317167
  16    0.0046614637997622
  17    -0.013528562824426
  18       1.0041674266607
  19    8.7554545304958e-05
  20    8.7554545308692e-05
  21    -0.028247907224592
  22      0.06321063744875
  23     0.010805369355231
  24    -0.00059439595317693
  25    -0.00059439595317613
  26    0.0014274969374269
  27    -0.0070127053022744
  28    -5.074257985227e-05
  29    2.3574316523897e-05
  30    -0.0039590455027959
  31    -4.5081830496129e-05
  32    0.00075807669813936
  33    2.238794703596e-06
  34    0.00017269461102992
  35    0.00017269461103215
  36    0.0014274969374265
  37    -0.0070127053022744
  38    -5.074257984951e-05
  39    -0.0039590455027983
  40    2.3574316525269e-05
 Sym= A
 Ene=              18
 Spin= Alpha
 Occup=    0.00000
   1    -0.028247907224592
   2     0.063210637448751
   3    -0.00059439595317164
   4     0.010805369355222
   5    -0.00059439595316938
   6    0.0014274969374278
   7    -0.0070127053022741
   8    2.3574316526748e-05
   9    -5.074257984983e-05
  10    -0.0039590455028031
  11    -0.00020256294012356
  12    0.0014999118669725
  13    -4.3546424275235e-06
  14    -0.0010042316550317
  15    0.00059439595317037
  16     0.004661463799764
  17    -0.013528562824426
  18    8.7554545304975e-05
  19       1.0041674266607
  20    8.7554545304511e-05
  21    -0.00020256294012301
  22    0.0014999118669728
  23    0.00059439595317294
  24    -0.0010042316550339
  25    -4.3546424291915e-06
  26    1.507823951363e-05
  27    -0.00018668196086479
  28    -2.3574316522502e-05
  29    5.2136662755048e-06
  30    -2.3574316524359e-05
  31    -4.5081830496638e-05
  32    0.0007580766981395
  33    0.00017269461102736
  34    2.238794700226e-06
  35    0.00017269461102956
  36    0.0014274969374269
  37    -0.0070127053022743
  38    -0.0039590455027993
  39    -5.0742579851407e-05
  40    2.3574316523639e-05
 Sym= A
 Ene=              19
 Spin= Alpha
 Occup=    0.00000
   1    -0.0002025629401229
   2    0.0014999118669726
   3    -4.3546424302343e-06
   4    0.00059439595316995
   5    -0.0010042316550341
   6     0.001427496937426
   7    -0.0070127053022742
   8    2.3574316528127e-05
   9    -0.0039590455027997
  10    -5.0742579851107e-05
  11    -0.028247907224592
  12      0.06321063744875
  13    -0.00059439595317504
  14    -0.00059439595317674
  15     0.010805369355233
  16    0.0046614637997628
  17    -0.013528562824426
  18    8.7554545308664e-05
  19    8.755454530451e-05
  20       1.0041674266607
  21    -0.00020256294012281
  22    0.0014999118669725
  23    0.00059439595317124
  24    -4.3546424317971e-06
  25    -0.0010042316550333
  26    0.0014274969374269
  27    -0.0070127053022744
  28    -0.0039590455027975
  29    2.357431652608e-05
  30    -5.0742579848417e-05
  31    -4.5081830496327e-05
  32    0.00075807669813982
  33    0.00017269461103098
  34    0.0001726946110287
  35    2.2387947018519e-06
  36    1.5078239513076e-05
  37    -0.0001866819608654
  38    -2.3574316524922e-05
  39    -2.3574316523771e-05
  40    5.213666274603e-06
 Sym= A
 Ene=              20
 Spin= Alpha
 Occup=    0.00000
   1    0.00043414819339212
   2    -0.0061888418225998
   3     0.001427496937428
   4    -0.0014274969374271
   5    1.5078239513375e-05
   6    -8.2065525146406e-05
   7    0.00087229214420332
   8    -4.5081830496852e-05
   9    4.5081830495545e-05
  10    4.5081830496996e-05
  11    0.00043414819339331
  12    -0.0061888418226011
  13    0.0014274969374273
  14    1.5078239512706e-05
  15    -0.0014274969374272
  16    -0.012385061039374
  17      0.05541079540323
  18    -0.028247907224592
  19    -0.00020256294012301
  20    -0.00020256294012281
  21       1.2390352976921
  22     -0.48633332305776
  23    -0.0046614637997616
  24    0.0046614637997625
  25     0.004661463799763
  26    -0.012385061039374
  27     0.055410795403231
  28    0.00020256294012319
  29    -0.00020256294012444
  30     0.028247907224593
  31    0.00043414819339242
  32    -0.0061888418226002
  33    -1.5078239512622e-05
  34    -0.0014274969374272
  35    -0.0014274969374263
  36    -0.012385061039373
  37     0.055410795403229
  38    0.00020256294012342
  39     0.028247907224591
  40    -0.00020256294012244
 Sym= A
 Ene=              21
 Spin= Alpha
 Occup=    0.00000
   1    -0.0061888418225998
   2      0.03130943450301
   3    -0.0070127053022741
   4    0.0070127053022741
   5    -0.00018668196086546
   6    0.00087229214420345
   7    -0.006087745240558
   8    0.0007580766981396
   9    -0.00075807669813992
  10    -0.00075807669813958
  11    -0.0061888418226012
  12     0.031309434503011
  13    -0.0070127053022745
  14    -0.00018668196086537
  15     0.007012705302274
  16      0.05541079540323
  17     -0.19215992288943
  18      0.06321063744875
  19    0.0014999118669728
  20    0.0014999118669726
  21     -0.48633332305776
  22       1.3542859075056
  23     0.013528562824426
  24    -0.013528562824426
  25    -0.013528562824426
  26     0.055410795403231
  27     -0.19215992288943
  28    -0.0014999118669727
  29    0.0014999118669726
  30     -0.06321063744875
  31      -0.0061888418226
  32      0.03130943450301
  33    0.00018668196086532
  34    0.0070127053022744
  35    0.0070127053022742
  36     0.055410795403229
  37     -0.19215992288943
  38    -0.0014999118669727
  39     -0.06321063744875
  40    0.0014999118669725
 Sym= A
 Ene=              22
 Spin= Alpha
 Occup=    0.00000
   1    -0.0014274969374274
   2    0.0070127053022743
   3    -5.0742579849823e-05
   4    0.0039590455027972
   5    -2.3574316525757e-05
   6    4.5081830495845e-05
   7    -0.00075807669813942
   8    2.2387947034857e-06
   9    -0.00017269461102904
  10    -0.0001726946110274
  11    -0.0014274969374274
  12     0.007012705302274
  13    -5.0742579852775e-05
  14    -2.3574316527187e-05
  15    0.0039590455028008
  16     0.028247907224592
  17     -0.06321063744875
  18     0.010805369355231
  19    0.00059439595317293
  20    0.00059439595317125
  21    -0.0046614637997616
  22     0.013528562824426
  23       1.0041674266607
  24    -8.7554545305091e-05
  25    -8.7554545302707e-05
  26    0.00020256294012309
  27    -0.0014999118669726
  28    -0.0010042316550312
  29    4.3546424309113e-06
  30    -0.00059439595317619
  31    -1.5078239512537e-05
  32    0.0001866819608653
  33    5.2136662768483e-06
  34    2.3574316522652e-05
  35    2.357431652482e-05
  36    0.00020256294012312
  37    -0.0014999118669728
  38    -0.0010042316550325
  39    -0.00059439595317685
  40    4.3546424333647e-06
 Sym= A
 Ene=              23
 Spin= Alpha
 Occup=    0.00000
   1    0.0014274969374274
   2    -0.0070127053022742
   3    0.0039590455027993
   4    -5.0742579851786e-05
   5    2.3574316521819e-05
   6    -4.5081830496866e-05