[Molden Format]
made by pyscf v[2.3.0]
[Atoms] (AU)
He   1   2     0.00000000000000     0.00000000000000    -1.02236073065094
He   2   2     0.00000000000000     0.00000000000000     3.50640572139172
He   3   2     0.00000000000000     0.00000000000000    -5.42007467595502
He   4   2     3.07911974736631     2.23711447804386     1.21836312429083
He   5   2     3.07911974736631    -2.23711447804386     1.21836312429083
He   6   2    -1.17612774540680     3.61973259708188     1.21836312429083
He   7   2    -1.17612774540680    -3.61973259708188     1.21836312429083
He   8   2    -3.80600290118026     0.00000000000000     1.21836312429083
[GTO]
1 0
 s    3 1.00
                 38.36   0.040176075383249
                  5.77    0.26136807476949
                  1.24    0.79307123949544
 s    1 1.00
                0.2976                   1
 p    1 1.00
                 1.275                   1

2 0
 s    3 1.00
                 38.36   0.040176075383249
                  5.77    0.26136807476949
                  1.24    0.79307123949544
 s    1 1.00
                0.2976                   1
 p    1 1.00
                 1.275                   1

3 0
 s    3 1.00
                 38.36   0.040176075383249
                  5.77    0.26136807476949
                  1.24    0.79307123949544
 s    1 1.00
                0.2976                   1
 p    1 1.00
                 1.275                   1

4 0
 s    3 1.00
                 38.36   0.040176075383249
                  5.77    0.26136807476949
                  1.24    0.79307123949544
 s    1 1.00
                0.2976                   1
 p    1 1.00
                 1.275                   1

5 0
 s    3 1.00
                 38.36   0.040176075383249
                  5.77    0.26136807476949
                  1.24    0.79307123949544
 s    1 1.00
                0.2976                   1
 p    1 1.00
                 1.275                   1

6 0
 s    3 1.00
                 38.36   0.040176075383249
                  5.77    0.26136807476949
                  1.24    0.79307123949544
 s    1 1.00
                0.2976                   1
 p    1 1.00
                 1.275                   1

7 0
 s    3 1.00
                 38.36   0.040176075383249
                  5.77    0.26136807476949
                  1.24    0.79307123949544
 s    1 1.00
                0.2976                   1
 p    1 1.00
                 1.275                   1

8 0
 s    3 1.00
                 38.36   0.040176075383249
                  5.77    0.26136807476949
                  1.24    0.79307123949544
 s    1 1.00
                0.2976                   1
 p    1 1.00
                 1.275                   1

[5d]
[7f]
[9g]

[MO]
 Sym= A
 Ene=               0
 Spin= Alpha
 Occup=    1.00000
   1        1.222263335864
   2     -0.44425042835101
   3    -2.2900909941954e-09
   4    -4.6690037047293e-17
   5    -0.0003572378943814
   6    -0.0061702103181023
   7     0.013031775319479
   8    -2.1688791118944e-09
   9    7.9984157021665e-18
  10    -0.0028656367975669
  11    -0.010391008995675
  12     0.021899188440994
  13    -1.7567877682266e-13
  14    -6.0021257587265e-20
  15    0.0042936936003514
  16    -0.008603709136019
  17     0.018310685273268
  18    -0.0026351347196504
  19    -0.0019145368022546
  20    -0.0021685358805561
  21    -0.008603709136019
  22     0.018310685273268
  23    -0.0026351347196504
  24    0.0019145368022546
  25    -0.0021685358805561
  26    -0.0086036240292601
  27     0.018310471451617
  28    0.0010065191874892
  29    -0.0030977275184885
  30    -0.0021684937320415
  31    -0.0086036240292601
  32     0.018310471451617
  33    0.0010065191874892
  34    0.0030977275184885
  35    -0.0021684937320415
  36    -0.0086037121153908
  37     0.018310690678834
  38    0.0032572065312664
  39    -2.9634493825449e-19
  40    -0.0021685366733012
 Sym= A
 Ene=               1
 Spin= Alpha
 Occup=    1.00000
   1     -0.44425042835101
   2        1.235559896059
   3    5.1107288265315e-09
   4    -2.6216728134436e-17
   5    0.00075301812793596
   6     0.013012345226984
   7    -0.030139291354189
   8    4.8425245639896e-09
   9    -3.404150621263e-17
  10    0.0056893472999537
  11      0.02188974533726
  12    -0.049870666606392
  13    3.9324858116596e-13
  14    -9.4955287716295e-21
  15    -0.0086042023211184
  16     0.018298302495697
  17     -0.04228390479415
  18    0.0052559594180497
  19    0.0038186758568974
  20    0.0043504210089789
  21     0.018298302495697
  22     -0.04228390479415
  23    0.0052559594180497
  24    -0.0038186758568974
  25    0.0043504210089789
  26     0.018298086436332
  27      -0.0422833413777
  28    -0.0020075721014983
  29       0.0061786309316
  30    0.0043503361494681
  31     0.018298086436332
  32      -0.0422833413777
  33    -0.0020075721014983
  34      -0.0061786309316
  35    0.0043503361494681
  36      0.01829831093445
  37    -0.042283921545927
  38    -0.0064967247277218
  39    -1.0622901012987e-19
  40     0.004350422605071
 Sym= A
 Ene=               2
 Spin= Alpha
 Occup=    1.00000
   1    -2.2900909941954e-09
   2    5.1107288265315e-09
   3       1.0001357043637
   4    -5.5022842055757e-17
   5    5.6312550546502e-10
   6    -2.2108359432699e-09
   7    4.9142076436931e-09
   8    0.00012782284280888
   9    2.2460516409978e-16
  10    -5.4660233661034e-10
  11    1.5647892757547e-10
  12    -3.1316919590108e-10
  13    -2.1999430653791e-06
  14    1.0461573168175e-17
  15    -5.4444581500026e-11
  16    0.0027415034357503
  17    -0.0054880096437386
  18    3.8670257598877e-05
  19    -3.3529340433584e-05
  20    1.7485860735724e-05
  21    0.0027415034357503
  22    -0.0054880096437388
  23    3.867025759891e-05
  24    3.3529340433286e-05
  25    1.7485860735766e-05
  26    -0.0010471467513979
  27    0.0020962038753564
  28    7.8086501349429e-05
  29    2.0723317143353e-05
  30    -6.6787064984822e-06
  31    -0.0010471467513982
  32    0.0020962038753565
  33    7.8086501349312e-05
  34    -2.0723317143257e-05
  35    -6.6787064984826e-06
  36    -0.0033886892090689
  37    0.0067835623855359
  38    1.4310210961293e-05
  39    -8.1530554371967e-18
  40    -2.1613738421929e-05
 Sym= A
 Ene=               3
 Spin= Alpha
 Occup=    1.00000
   1    -4.6690037047307e-17
   2    -2.6216728134436e-17
   3    -5.502284010486e-17
   4       1.0001357014152
   5    1.4075751166175e-16
   6    6.4236940792975e-17
   7    -6.7961626365803e-17
   8    -2.6398070608413e-16
   9    0.00012782004278854
  10    2.7811208629056e-17
  11    -1.7123281100633e-17
  12    -3.5555637413122e-17
  13    3.2458510219871e-17
  14    -2.1999432934352e-06
  15    -1.8437184033284e-17
  16    0.0019918260294878
  17    -0.0039872873888313
  18    -3.3528185206086e-05
  19    6.0459164643003e-05
  20    1.2704237359945e-05
  21    -0.0019918260294879
  22    0.0039872873888311
  23    3.3528185205964e-05
  24    6.0459164643043e-05
  25    -1.2704237359974e-05
  26    0.0032227761772751
  27    -0.0064514331050242
  28    2.0722681176038e-05
  29    2.1041645310355e-05
  30    2.0554857478654e-05
  31    -0.0032227761772748
  32    0.0064514331050242
  33    -2.072268117606e-05
  34    2.1041645310137e-05
  35    -2.0554857478709e-05
  36    -1.1086351436985e-16
  37    -6.0496011288684e-17
  38    1.1445109344056e-16
  39    8.4819013175499e-05
  40    -1.6797668532169e-16
 Sym= A
 Ene=               4
 Spin= Alpha
 Occup=    1.00000
   1    -0.0003572378943814
   2    0.00075301812793596
   3    5.6312550547605e-10
   4    1.4075751166176e-16
   5       1.0002037739583
   6    0.0028407750083613
   7    -0.0056434339828201
   8    5.347108869614e-10
   9    1.4622955611088e-17
  10    -4.630639948396e-05
  11    -0.0041748123260437
  12    0.0083688273731847
  13    4.3532228536953e-14
  14    -4.1257596199326e-17
  15    4.4362863967798e-05
  16    0.0017620015966099
  17    -0.003502249589167
  18    -3.874994269585e-05
  19    -2.8154407650488e-05
  20    4.0115814472229e-05
  21    0.0017620015966098
  22    -0.003502249589167
  23    -3.8749942695877e-05
  24    2.8154407650537e-05
  25    4.0115814472272e-05
  26    0.0017619604191371
  27    -0.0035021670547034
  28    1.4801402075321e-05
  29    -4.5554889645946e-05
  30    4.0114687337634e-05
  31    0.0017619604191371
  32    -0.0035021670547033
  33    1.4801402075253e-05
  34    4.5554889646013e-05
  35    4.0114687337567e-05
  36    0.0017620036182536
  37    -0.0035022534920451
  38    4.7897863834453e-05
  39    2.1736426469692e-17
  40    4.011583566886e-05
 Sym= A
 Ene=               5
 Spin= Alpha
 Occup=    1.00000
   1    -0.0061702103181022
   2     0.013012345226984
   3    -2.2108359432699e-09
   4    6.4236940792968e-17
   5    0.0028407750083613
   6       1.2212564384159
   7     -0.44227255756577
   8    -2.1046226053241e-09
   9    -1.0019170439151e-16
  10    0.00056572700075172
  11    0.00042173007587104
  12    -0.00084034074446596
  13    -1.7009524356023e-13
  14    -1.8976968035638e-18
  15    -0.00013974480936781
  16    -0.0083558121476359
  17     0.017699699478358
  18    -0.0024770044127124
  19    -0.0017996483544979
  20    0.0020966835270681
  21    -0.0083558121476358
  22     0.017699699478358
  23    -0.0024770044127124
  24    0.0017996483544979
  25    0.0020966835270681
  26    -0.0083557284765324
  27     0.017699491709971
  28    0.00094611952262128
  29    -0.0029118375091589
  30    0.0020966427597441
  31    -0.0083557284765324
  32     0.017699491709971
  33    0.00094611952262131
  34     0.002911837509159
  35     0.002096642759744
  36    -0.0083558150818726
  37     0.017699704781422
  38    0.0030617466270275
  39    2.6324508840202e-17
  40    0.0020966842938846
 Sym= A
 Ene=               6
 Spin= Alpha
 Occup=    1.00000
   1     0.013031775319479
   2    -0.030139291354189
   3    4.9142076436931e-09
   4    -6.7961626365803e-17
   5    -0.0056434339828201
   6     -0.44227255756577
   7       1.2315051235346
   8    4.6762688914906e-09
   9    1.6975731221904e-16
  10     -0.00118553178413
  11    -0.00082489061383761
  12    0.0017242061010736
  13    3.7903680653436e-13
  14    1.1041215702374e-18
  15    0.00029211043257732
  16     0.017700031619929
  17    -0.040743122871104
  18    0.0049393373999517
  19    0.0035886364486929
  20    -0.0042063063043394
  21     0.017700031619929
  22    -0.040743122871104
  23    0.0049393373999517
  24    -0.0035886364486929
  25    -0.0042063063043395
  26     0.017699821470246
  27    -0.040742579083656
  28    -0.001886634764979
  29    0.0058064262383628
  30    -0.0042062242477802
  31     0.017699821470246
  32    -0.040742579083656
  33    -0.001886634764979
  34    -0.0058064262383628
  35    -0.0042062242477802
  36     0.017700039810221
  37    -0.040743139076309
  38    -0.0061053582137663
  39    1.4675313289126e-17
  40    -0.004206307847817
 Sym= A
 Ene=               7
 Spin= Alpha
 Occup=    1.00000
   1    -2.1688791118945e-09
   2    4.8425245639896e-09
   3    0.00012782284280893
   4    -2.639807070208e-16
   5    5.3471088696467e-10
   6    -2.104622605324e-09
   7    4.6762688914906e-09
   8       1.0001223884563
   9    6.1457355758972e-17
  10    -5.1924751335248e-10
  11    1.4825356298472e-10
  12    -2.967037631235e-10
  13    9.9579333717149e-09
  14    3.4945188659819e-18
  15    -5.1589117255267e-11
  16    0.0026040229190586
  17    -0.0052117940123871
  18    3.5018975874021e-05
  19    -3.319249544896e-05
  20    -1.5574003933866e-05
  21    0.0026040229190583
  22    -0.005211794012387
  23    3.5018975874015e-05
  24    3.3192495449073e-05
  25    -1.5574003933935e-05
  26    -0.0009946345804646
  27    0.0019907003623633
  28    7.4039227511161e-05
  29    2.0515047184201e-05
  30    5.9484792399043e-06
  31    -0.00099463458046451
  32    0.0019907003623633
  33    7.4039227511214e-05
  34    -2.0515047184219e-05
  35    5.9484792399361e-06
  36    -0.0032187537141957
  37    0.0064421406156823
  38    1.090363550272e-05
  39    1.9643873677287e-18
  40    1.9250557864765e-05
 Sym= A
 Ene=               8
 Spin= Alpha
 Occup=    0.00000
   1    7.9984157021662e-18
   2    -3.404150621263e-17
   3    2.2460516667654e-16
   4    0.00012782004278853
   5    1.4622955611416e-17
   6    -1.0019170439153e-16
   7    1.6975731221904e-16
   8    6.1457352148304e-17
   9       1.0001223857969
  10    -2.7073215364491e-17
  11    -1.7849592473205e-17
  12    7.9257715217131e-17
  13    -1.8625542798877e-16
  14    9.9577168724832e-09
  15    -1.488791885602e-17
  16    0.0018919402256198
  17    -0.0037866042310626
  18    -3.319139825908e-05
  19    5.658897282245e-05
  20    -1.1315192720415e-05
  21    -0.0018919402256195
  22    0.0037866042310624
  23    3.3191398258987e-05
  24    5.6588972822435e-05
  25    1.1315192720272e-05
  26    0.0030611608405171
  27    -0.0061267276379705
  28    2.0514443236937e-05
  29    1.7567624698418e-05
  30    -1.8307448697312e-05
  31    -0.0030611608405172
  32    0.0061267276379703
  33    -2.0514443236913e-05
  34    1.7567624698438e-05
  35    1.830744869738e-05
  36    -3.0369246982894e-17
  37    8.8770915391145e-17
  38     1.28137909379e-16
  39    8.0704122859745e-05
  40    9.6073741322598e-17
 Sym= A
 Ene=               9
 Spin= Alpha
 Occup=    0.00000
   1    -0.0028656367975669
   2    0.0056893472999537
   3    -5.4660233661008e-10
   4    2.7811208629455e-17
   5    -4.6306399483987e-05
   6    0.00056572700075173
   7     -0.00118553178413
   8    -5.1924751334831e-10
   9    -2.7073215364778e-17
  10       1.0001186833202
  11     0.000155064726205
  12    -0.00032689029281913
  13    -4.2239964756855e-14
  14    -6.143659430093e-17
  15    -5.4186546147566e-05
  16    -0.0017118062928982
  17    0.0033996400221084
  18    3.9344031712116e-05
  19    2.8586013249209e-05
  20    4.2337893559062e-05
  21    -0.0017118062928982
  22    0.0033996400221081
  23    3.9344031712261e-05
  24    -2.8586013249244e-05
  25    4.233789355917e-05
  26    -0.0017117662984411
  27    0.0033995599273074
  28    -1.502829166266e-05
  29    4.6253150079267e-05
  30    4.2336751990008e-05
  31    -0.001711766298441
  32    0.0033995599273073
  33    -1.5028291662664e-05
  34    -4.6253150079407e-05
  35    4.2336751989971e-05
  36    -0.0017118082552996
  37    0.0033996438090718
  38    -4.8632192285409e-05
  39    5.2868986998152e-17
  40    4.2337915038579e-05
 Sym= A
 Ene=              10
 Spin= Alpha
 Occup=    0.00000
   1    -0.010391008995675
   2      0.02188974533726
   3    1.5647892757546e-10
   4    -1.7123281100634e-17
   5    -0.0041748123260437
   6    0.00042173007587108
   7    -0.00082489061383759
   8    1.4825356298473e-10
   9    -1.7849592473204e-17
  10     0.000155064726205
  11       1.2185952875587
  12     -0.43709572064096
  13    1.199664134267e-14
  14    -3.263181039704e-18
  15    -0.00023953639058184
  16    0.00057305170268159
  17    -0.0011386567528778
  18    0.00014403127193447
  19    0.00010464476074733
  20    0.00012087799536645
  21    0.0005730517026816
  22    -0.0011386567528779
  23    0.00014403127193445
  24    -0.00010464476074734
  25    0.00012087799536645
  26    0.00057304487192051
  27    -0.0011386415118837
  28    -5.5014341957059e-05
  29    0.00016931557789605
  30    0.00012087563994479
  31    0.00057304487192058
  32    -0.0011386415118838
  33    -5.501434195705e-05
  34    -0.00016931557789605
  35    0.0001208756399448
  36    0.00057305197416555
  37    -0.0011386572357226
  38    -0.00017803247529558
  39    -2.3843024451942e-17
  40    0.00012087803966726
 Sym= A
 Ene=              11
 Spin= Alpha
 Occup=    0.00000
   1     0.021899188440994
   2    -0.049870666606392
   3    -3.1316919590108e-10
   4    -3.5555637413122e-17
   5    0.0083688273731847
   6    -0.00084034074446595
   7    0.0017242061010736
   8    -2.9670376312349e-10
   9    7.9257715217131e-17
  10    -0.00032689029281913
  11     -0.43709572064096
  12       1.2209709343035
  13    -2.403475771106e-14
  14    3.2701793825908e-18
  15    0.00050066550496895
  16    -0.0011383239703872
  17    0.0023583980751376
  18    -0.00030256150988617
  19    -0.00021982365122128
  20    -0.00025240638760089
  21    -0.0011383239703871
  22    0.0023583980751375
  23    -0.00030256150988618
  24    0.0002198236512213
  25    -0.00025240638760085
  26    -0.0011383105126072
  27    0.0023583666362791
  28    0.00011556672859013
  29    -0.0003556754267975
  30    -0.00025240146847176
  31    -0.0011383105126072
  32    0.0023583666362791
  33    0.00011556672859013
  34    0.0003556754267975
  35    -0.00025240146847173
  36    -0.0011383245013596
  37    0.0023583990488687
  38    0.00037398667193269
  39    -3.0718894753272e-18
  40    -0.00025240648012083
 Sym= A
 Ene=              12
 Spin= Alpha
 Occup=    0.00000
   1    -1.75678776828e-13
   2    3.9324858116597e-13
   3    -2.1999430653798e-06
   4    3.2458481728407e-17
   5    4.3532228671947e-14
   6    -1.7009524356207e-13
   7    3.7903680653436e-13
   8    9.9579333687018e-09
   9    -1.8625539920564e-16
  10    -4.2239964732734e-14
  11    1.1996641341325e-14
  12    -2.4034757711055e-14
  13       1.0000000000081
  14    3.1835305869145e-17
  15    -4.0303466768545e-15
  16    2.1228463529061e-07
  17    -4.2559049923439e-07
  18    1.2115193965075e-09
  19    -3.9962379222548e-09
  20    -5.792549742035e-11
  21    2.1228463546805e-07
  22    -4.2559049930484e-07
  23    1.2115193472505e-09
  24    3.9962378239963e-09
  25    -5.7925480111552e-11
  26    -8.1084394416265e-08
  27    1.625588327255e-07
  28    5.9093896902671e-09
  29    2.469854473123e-09
  30    2.2124549259951e-11
  31    -8.1084394380377e-08
  32    1.6255883273563e-07
  33    5.9093896235809e-09
  34    -2.4698543156991e-09
  35    2.2124656042831e-11
  36    -2.6239859573077e-07
  37    5.2605951557295e-07
  38    -1.6918868724607e-09
  39    -2.2652103384106e-17
  40    7.1600649872943e-11
 Sym= A
 Ene=              13
 Spin= Alpha
 Occup=    0.00000
   1    -6.0021258145981e-20
   2    -9.4955287726771e-21
   3    1.0461522002132e-17
   4    -2.1999432934329e-06
   5    -4.1257596199494e-17
   6    -1.8976968035531e-18
   7    1.1041215702373e-18
   8    3.4945160035902e-18
   9    9.9577168752866e-09
  10    -6.1436594301163e-17
  11    -3.2631810397067e-18
  12    3.2701793825908e-18
  13    3.1835685441797e-17
  14       1.0000000000081
  15    1.1367085929985e-17
  16    1.5423437042202e-07
  17    -3.0921075551295e-07
  18    -3.9961486824088e-09
  19    3.8084452063365e-09
  20    -4.2085764080854e-11
  21    -1.5423437036761e-07
  22    3.0921075550208e-07
  23    3.9961486777547e-09
  24    3.8084451827796e-09
  25    4.2085752102641e-11
  26    2.4955131762529e-07
  27    -5.0030316044074e-07
  28    2.4698053845958e-09
  29    -8.8940376250493e-10
  30    -6.8092336311279e-11
  31    -2.4955131778777e-07
  32    5.0030316037756e-07
  33    -2.4698053941539e-09
  34    -8.8940381361763e-10
  35    6.8092356254866e-11
  36    1.0974650795419e-16
  37    7.0891133140826e-17
  38    1.3438382492007e-17
  39    6.7118337860122e-09
  40    4.7207961648744e-17
 Sym= A
 Ene=              14
 Spin= Alpha
 Occup=    0.00000
   1    0.0042936936003514
   2    -0.0086042023211184
   3    -5.4444581500509e-11
   4    -1.8437184033291e-17
   5    4.4362863967881e-05
   6    -0.00013974480936781
   7    0.00029211043257732
   8    -5.1589117254066e-11
   9    -1.4887918856007e-17
  10    -5.4186546147566e-05
  11    -0.00023953639058184
  12    0.00050066550496895
  13    -4.0303469800083e-15
  14    1.1367085921211e-17
  15       1.0000833788209
  16    -0.00019829892848701
  17    0.00041759575091814
  18    -5.0444361275016e-05
  19    -3.6649944923438e-05
  20    -4.2272502586051e-05
  21    -0.00019829892848705
  22    0.00041759575091827
  23    -5.0444361275011e-05
  24    3.6649944923456e-05
  25    -4.2272502586119e-05
  26    -0.00019829654669571
  27    0.00041759014009676
  28    1.9267782884419e-05
  29    -5.9299734505116e-05
  30    -4.2271678125365e-05
  31    -0.0001982965466956
  32    0.00041759014009677
  33    1.9267782884448e-05
  34    5.929973450521e-05
  35    -4.2271678125261e-05
  36    -0.00019829902204894
  37    0.00041759592474902
  38      6.2352671346e-05
  39    9.4180981012161e-18
  40    -4.2272518092716e-05
 Sym= A
 Ene=              15
 Spin= Alpha
 Occup=    0.00000
   1    -0.0086037091360189
   2     0.018298302495697
   3    0.0027415034357503
   4    0.0019918260294878
   5    0.0017620015966099
   6    -0.0083558121476359
   7     0.017700031619929
   8    0.0026040229190586
   9    0.0018919402256198
  10    -0.0017118062928982
  11    0.00057305170268159
  12    -0.0011383239703872
  13    2.1228463529062e-07
  14    1.5423437042202e-07
  15    -0.00019829892848701
  16        1.220236702342
  17     -0.44028354920858
  18    0.00041567561100194
  19    0.00030200818124732
  20    6.1320511426048e-06
  21    -0.0084692678479648
  22     0.017752605294588
  23    0.00022906229551712
  24    0.0034771765180488
  25    6.1187080657212e-06
  26    -0.0084692436910034
  27      0.01775254095286
  28    0.0033777460310534
  29    -0.00085665478261858
  30    6.1185886456522e-06
  31    0.0015157805446779
  32    -0.0029963024552689
  33    -0.00027213624759458
  34    -0.00032752259034806
  35    6.0970001757019e-06
  36    0.0015157923501517
  37    -0.0029963297840545
  38    -0.00039559316045354
  39    -0.00015760782678602
  40    6.0971208780529e-06
 Sym= A
 Ene=              16
 Spin= Alpha
 Occup=    0.00000
   1     0.018310685273268
   2     -0.04228390479415
   3    -0.0054880096437386
   4    -0.0039872873888313
   5    -0.003502249589167
   6     0.017699699478358
   7    -0.040743122871104
   8    -0.0052117940123871
   9    -0.0037866042310626
  10    0.0033996400221084
  11    -0.0011386567528778
  12    0.0023583980751376
  13    -4.2559049923439e-07
  14    -3.0921075551295e-07
  15    0.00041759575091814
  16     -0.44028354920858
  17       1.2274413498623
  18    -0.00086998445350295
  19    -0.00063208549021452
  20    -1.3631749301211e-05
  21     0.017752605294588
  22    -0.040419517647941
  23    -0.00048434833764816
  24    -0.006946760838406
  25    -1.3607212544387e-05
  26     0.017752537925678
  27    -0.040419334165047
  28    -0.0067563748915202
  29    0.0016860236032116
  30    -1.3606947037214e-05
  31    -0.0029963061816066
  32    0.0061807038354733
  33    0.00056680016168199
  34    0.00068999668839185
  35    -1.3567247720779e-05
  36    -0.002996328879098
  37    0.0061807589115678
  38    0.00083138902909061
  39    0.00032583999905331
  40    -1.3567516463776e-05
 Sym= A
 Ene=              17
 Spin= Alpha
 Occup=    0.00000
   1    -0.0026351347196504
   2    0.0052559594180497
   3    3.8670257598891e-05
   4    -3.3528185206096e-05
   5    -3.8749942695843e-05
   6    -0.0024770044127124
   7    0.0049393373999517
   8    3.5018975874029e-05
   9    -3.3191398259096e-05
  10    3.9344031712126e-05
  11    0.00014403127193447
  12    -0.00030256150988617
  13    1.2115193960765e-09
  14    -3.9961486828034e-09
  15    -5.0444361275047e-05
  16    0.00041567561100194
  17    -0.00086998445350295
  18       1.0001150377296
  19    2.5634205970798e-05
  20    2.2208192544617e-06
  21    0.00022906229551707
  22    -0.00048434833764807
  23    5.8545087902986e-05
  24    -3.9984872916764e-05
  25    2.2210126271281e-06
  26    -0.0032361794798662
  27    0.0064570355342045
  28    1.0112599372436e-05
  29    5.5720220718291e-05
  30    2.2204320768991e-06
  31    0.00022739965694499
  32    -0.00048107814693837
  33    -2.4965155452153e-05
  34    -6.7630837193197e-05
  35    2.2207449449966e-06
  36    0.00041268036317802
  37    -0.00086413046838634
  38    -0.00010814548708359
  39    -4.6855492154767e-05
  40    2.2204569533778e-06
 Sym= A
 Ene=              18
 Spin= Alpha
 Occup=    0.00000
   1    -0.0019145368022546
   2    0.0038186758568974
   3    -3.3529340433568e-05
   4    6.0459164643015e-05
   5    -2.8154407650489e-05
   6    -0.0017996483544979
   7    0.0035886364486929
   8    -3.3192495448951e-05
   9    5.6588972822491e-05
  10    2.8586013249224e-05
  11    0.00010464476074733
  12    -0.00021982365122128
  13    -3.9962379257078e-09
  14    3.8084452072133e-09
  15    -3.6649944923444e-05
  16    0.00030200818124732
  17    -0.00063208549021452
  18    2.5634205970815e-05
  19       1.0000983806138
  20    1.6135192899709e-06
  21    -0.0034771765180488
  22    0.0069467608384058
  23    3.9984872916948e-05
  24    5.0000910616865e-06
  25    1.6130948252161e-06
  26    0.0012923491179352
  27    -0.0026072916153681
  28    -2.4247920220428e-05
  29    5.3430919160192e-05
  30    1.6138029221481e-06
  31    0.00036002833957919
  32    -0.00075228173820764
  33    -7.3881823716151e-05
  34    -7.0945255462075e-05
  35    1.6131161583836e-06
  36    0.0001050169538199
  37    -0.00022506911682545
  38    -4.0605343531074e-05
  39    1.2233894594415e-05
  40    1.6136052312204e-06
 Sym= A
 Ene=              19
 Spin= Alpha
 Occup=    0.00000
   1    -0.0021685358805561
   2    0.0043504210089789
   3    1.7485860735728e-05
   4    1.2704237359945e-05
   5    4.0115814472224e-05
   6    0.0020966835270681
   7    -0.0042063063043394
   8    -1.5574003933861e-05
   9    -1.1315192720388e-05
  10    4.2337893559026e-05
  11    0.00012087799536645
  12    -0.00025240638760089
  13    -5.7925497072611e-11
  14    -4.2085765185678e-11
  15    -4.2272502586065e-05
  16    6.1320511426049e-06
  17    -1.3631749301212e-05
  18    2.2208192544663e-06
  19    1.6135192899682e-06
  20       1.0000400854659
  21    6.1187080657728e-06
  22    -1.3607212544342e-05
  23    2.2210126271607e-06
  24    -1.6130948253206e-06
  25    3.8650650826109e-05
  26    6.1186400115666e-06
  27    -1.3607034036173e-05
  28    -8.4780327714304e-07
  29    2.6107330406159e-06
  30    3.8649904909152e-05
  31    6.0970509046456e-06
  32    -1.3567333562198e-05
  33    -8.4792279657629e-07
  34    -2.6105359204237e-06
  35    4.0082407823796e-05
  36    6.0971213822449e-06
  37    -1.3567516812499e-05
  38    -2.7448408946952e-06
  39    2.824796836317e-10
  40    4.0083204338366e-05
 Sym= A
 Ene=              20
 Spin= Alpha
 Occup=    0.00000
   1    -0.008603709136019
   2     0.018298302495697
   3    0.0027415034357503
   4    -0.0019918260294879
   5    0.0017620015966098
   6    -0.0083558121476359
   7     0.017700031619929
   8    0.0026040229190583
   9    -0.0018919402256195
  10    -0.0017118062928982
  11    0.0005730517026816
  12    -0.0011383239703871
  13    2.1228463546803e-07
  14    -1.5423437036759e-07
  15    -0.00019829892848705
  16    -0.0084692678479648
  17     0.017752605294588
  18    0.00022906229551707
  19    -0.0034771765180488
  20    6.1187080657728e-06
  21        1.220236702342
  22     -0.44028354920858
  23    0.00041567561100194
  24    -0.00030200818124731
  25    6.1320511426788e-06
  26     0.001515780544678
  27    -0.0029963024552692
  28    -0.0002721362475946
  29    0.00032752259034807
  30    6.0970001757164e-06
  31    -0.0084692436910035
  32      0.01775254095286
  33    0.0033777460310533
  34    0.00085665478261855
  35    6.1185886457339e-06
  36     0.001515792350152
  37    -0.0029963297840547
  38    -0.00039559316045336
  39    0.00015760782678605
  40    6.0971208781125e-06
 Sym= A
 Ene=              21
 Spin= Alpha
 Occup=    0.00000
   1     0.018310685273268
   2     -0.04228390479415
   3    -0.0054880096437388
   4    0.0039872873888311
   5    -0.003502249589167
   6     0.017699699478358
   7    -0.040743122871104
   8    -0.005211794012387
   9    0.0037866042310624
  10    0.0033996400221081
  11    -0.0011386567528779
  12    0.0023583980751375
  13    -4.2559049930484e-07
  14    3.0921075550208e-07
  15    0.00041759575091827
  16     0.017752605294588
  17    -0.040419517647941
  18    -0.00048434833764807
  19    0.0069467608384058
  20    -1.3607212544342e-05
  21     -0.44028354920858
  22       1.2274413498623
  23    -0.00086998445350284
  24    0.00063208549021462
  25    -1.3631749301173e-05
  26    -0.0029963061816065
  27    0.0061807038354734
  28    0.00056680016168196
  29    -0.00068999668839177
  30    -1.3567247720713e-05
  31     0.017752537925678
  32    -0.040419334165047
  33    -0.0067563748915203
  34    -0.0016860236032118
  35    -1.3606947037182e-05
  36    -0.0029963288790981
  37    0.0061807589115679
  38    0.00083138902909055
  39    -0.00032583999905333
  40    -1.3567516463756e-05
 Sym= A
 Ene=              22
 Spin= Alpha
 Occup=    0.00000
   1    -0.0026351347196504
   2    0.0052559594180497
   3    3.8670257598945e-05
   4    3.3528185205976e-05
   5    -3.8749942695874e-05
   6    -0.0024770044127124
   7    0.0049393373999517
   8    3.5018975874032e-05
   9    3.3191398259004e-05
  10    3.934403171226e-05
  11    0.00014403127193445
  12    -0.00030256150988618
  13    1.2115193462129e-09
  14    3.9961486799198e-09
  15    -5.0444361275041e-05
  16    0.00022906229551712
  17    -0.00048434833764816
  18    5.8545087902939e-05
  19    3.9984872916939e-05
  20    2.2210126271553e-06
  21    0.00041567561100194
  22    -0.00086998445350285
  23       1.0001150377296
  24    -2.5634205970921e-05
  25    2.2208192545412e-06
  26    0.0002273996569449
  27    -0.00048107814693837
  28    -2.4965155452173e-05
  29    6.7630837193164e-05
  30    2.220744944905e-06
  31    -0.0032361794798661
  32    0.0064570355342045
  33    1.0112599372574e-05
  34    -5.5720220717824e-05
  35    2.2204320768236e-06
  36    0.00041268036317802
  37    -0.00086413046838633
  38    -0.00010814548708339
  39    4.6855492154697e-05
  40    2.2204569535041e-06
 Sym= A
 Ene=              23
 Spin= Alpha
 Occup=    0.00000