[Molden Format]
made by pyscf v[2.3.0]
[Atoms] (AU)
He   1   2     1.61310801445123     1.61310801445123     1.58924077349797
He   2   2     1.61310801445123    -1.61310801445123     1.58924077349797
He   3   2    -1.61310801445123    -1.61310801445123     1.58924077349797
He   4   2    -1.61310801445123     1.61310801445123     1.58924077349797
He   5   2     0.00000000000000     2.28127737757494    -1.58924077349797
He   6   2     2.28127737757494     0.00000000000000    -1.58924077349797
He   7   2     0.00000000000000    -2.28127737757494    -1.58924077349797
He   8   2    -2.28127737757494     0.00000000000000    -1.58924077349797
[GTO]
1 0
 s    3 1.00
                 38.36   0.040176075383249
                  5.77    0.26136807476949
                  1.24    0.79307123949544
 s    1 1.00
                0.2976                   1
 p    1 1.00
                 1.275                   1

2 0
 s    3 1.00
                 38.36   0.040176075383249
                  5.77    0.26136807476949
                  1.24    0.79307123949544
 s    1 1.00
                0.2976                   1
 p    1 1.00
                 1.275                   1

3 0
 s    3 1.00
                 38.36   0.040176075383249
                  5.77    0.26136807476949
                  1.24    0.79307123949544
 s    1 1.00
                0.2976                   1
 p    1 1.00
                 1.275                   1

4 0
 s    3 1.00
                 38.36   0.040176075383249
                  5.77    0.26136807476949
                  1.24    0.79307123949544
 s    1 1.00
                0.2976                   1
 p    1 1.00
                 1.275                   1

5 0
 s    3 1.00
                 38.36   0.040176075383249
                  5.77    0.26136807476949
                  1.24    0.79307123949544
 s    1 1.00
                0.2976                   1
 p    1 1.00
                 1.275                   1

6 0
 s    3 1.00
                 38.36   0.040176075383249
                  5.77    0.26136807476949
                  1.24    0.79307123949544
 s    1 1.00
                0.2976                   1
 p    1 1.00
                 1.275                   1

7 0
 s    3 1.00
                 38.36   0.040176075383249
                  5.77    0.26136807476949
                  1.24    0.79307123949544
 s    1 1.00
                0.2976                   1
 p    1 1.00
                 1.275                   1

8 0
 s    3 1.00
                 38.36   0.040176075383249
                  5.77    0.26136807476949
                  1.24    0.79307123949544
 s    1 1.00
                0.2976                   1
 p    1 1.00
                 1.275                   1

[5d]
[7f]
[9g]

[MO]
 Sym= A
 Ene=               0
 Spin= Alpha
 Occup=    1.00000
   1       1.2353574277949
   2     -0.47589143253754
   3    0.0041588739812802
   4    0.0041588739812802
   5    0.0022801012142432
   6    -0.011189839649485
   7     0.048746954303173
   8    -0.00035472896788598
   9     0.025751333203744
  10    0.00086664338913567
  11    -0.00073934613626092
  12    -0.002504268733697
  13    -0.0011012598967083
  14    -0.0011012598967083
  15    -0.00050014625968393
  16    -0.011189839649485
  17     0.048746954303173
  18     0.025751333203744
  19    -0.00035472896788602
  20    0.00086664338913574
  21     -0.01059938539501
  22     0.031220794734171
  23    0.0062616493705843
  24    -0.0015127284827638
  25     0.012638965464029
  26     -0.01059938539501
  27     0.031220794734171
  28    -0.0015127284827639
  29    0.0062616493705843
  30     0.012638965464029
  31    0.0025503645332856
  32    -0.0074861710441793
  33    -0.0025780978121916
  34    -0.0012591254441282
  35    -0.0012862005854591
  36    0.0025503645332856
  37    -0.0074861710441792
  38    -0.0012591254441282
  39    -0.0025780978121916
  40    -0.0012862005854591
 Sym= A
 Ene=               1
 Spin= Alpha
 Occup=    1.00000
   1     -0.47589143253754
   2       1.3208099441412
   3    -0.011781797554669
   4    -0.011781797554669
   5    -0.0056495776806664
   6     0.048746954303173
   7     -0.16626753639521
   8    0.0016811909424096
   9    -0.056404881005327
  10    -0.0020614072899537
  11    -0.0025042687336968
  12     0.018579673451834
  13    0.0054567521191413
  14    0.0054567521191413
  15    0.0014265097588693
  16     0.048746954303173
  17     -0.16626753639521
  18    -0.056404881005327
  19    0.0016811909424098
  20    -0.0020614072899537
  21     0.031220803544699
  22    -0.088728616577923
  23    -0.012995579293515
  24    0.0025349651236814
  25     -0.02487661926292
  26     0.031220803544699
  27    -0.088728616577923
  28    0.0025349651236814
  29    -0.012995579293515
  30     -0.02487661926292
  31    -0.0074861653423542
  32     0.022282967259945
  33    0.0073298531366902
  34    0.0034013344682016
  35    0.0038539320734728
  36    -0.0074861653423543
  37     0.022282967259945
  38    0.0034013344682016
  39    0.0073298531366902
  40    0.0038539320734728
 Sym= A
 Ene=               2
 Spin= Alpha
 Occup=    1.00000
   1    0.0041588739812802
   2    -0.011781797554669
   3       1.0036854820298
   4    -8.6612158434529e-05
   5    9.670407989948e-05
   6    -0.00035472896788837
   7    0.0016811909424096
   8    -0.00067933009116426
   9    0.00063284246152556
  10    -0.00013139059485793
  11    0.0011012598967082
  12    -0.0054567521191409
  13    -0.0001682192188173
  14    -0.0031877045660685
  15    -0.00016254137743319
  16    -0.025751333203741
  17     0.056404881005327
  18    0.0086633711893894
  19    -0.00063284246149308
  20    5.9105712168775e-05
  21    -0.0054973285220308
  22     0.010981786580931
  23    0.0013109856772896
  24    -0.00055027241840483
  25    -0.00060773174096071
  26    0.0033579855962634
  27    -0.0073967603172103
  28    0.00048049036904007
  29    -0.00028022887221788
  30    -1.6553695415203e-05
  31    -0.00093265262260947
  32     0.002777881056309
  33    -0.00013898717148892
  34    0.00058220940967652
  35    9.8111633993543e-05
  36    0.0027133214316481
  37    -0.007588085771296
  38    -0.00085384371537005
  39    -0.0012970651514511
  40    -0.0015400547752881
 Sym= A
 Ene=               3
 Spin= Alpha
 Occup=    1.00000
   1    0.0041588739812802
   2    -0.011781797554669
   3    -8.6612158434514e-05
   4       1.0036854820298
   5    9.6704079899535e-05
   6    -0.025751333203742
   7     0.056404881005327
   8    -0.00063284246149309
   9    0.0086633711893896
  10    5.9105712168893e-05
  11    0.0011012598967084
  12    -0.0054567521191412
  13    -0.0031877045660684
  14    -0.00016821921881699
  15    -0.00016254137743329
  16    -0.00035472896788813
  17    0.0016811909424095
  18    0.0006328424615255
  19    -0.00067933009116421
  20    -0.00013139059485799
  21    0.0033579855962634
  22    -0.0073967603172104
  23    -0.00028022887221787
  24    0.00048049036903985
  25    -1.6553695415171e-05
  26    -0.0054973285220308
  27     0.010981786580931
  28    -0.00055027241840497
  29    0.0013109856772899
  30    -0.00060773174096073
  31    0.0027133214316479
  32    -0.0075880857712958
  33    -0.0012970651514511
  34    -0.00085384371537013
  35    -0.0015400547752882
  36    -0.00093265262260931
  37    0.0027778810563092
  38    0.00058220940967658
  39    -0.00013898717148896
  40    9.8111633993486e-05
 Sym= A
 Ene=               4
 Spin= Alpha
 Occup=    1.00000
   1    0.0022801012142432
   2    -0.0056495776806664
   3    9.6704079899481e-05
   4    9.6704079899537e-05
   5       1.0015232241828
   6    0.00086664338913593
   7    -0.0020614072899539
   8    -0.00013139059485827
   9    -5.9105712167848e-05
  10    -7.3627766890196e-06
  11    -0.00050014625968386
  12     0.001426509758869
  13    0.0001625413774352
  14    0.00016254137743538
  15    -0.0002198471534661
  16    0.00086664338913535
  17    -0.0020614072899535
  18    -5.9105712167868e-05
  19    -0.00013139059485827
  20    -7.3627766890488e-06
  21    -0.012638967679311
  22     0.024876618337818
  23    -0.00041802962480228
  24     0.000441439733454
  25    0.0016199736126377
  26    -0.012638967679311
  27     0.024876618337819
  28    0.00044143973345392
  29    -0.0004180296248022
  30    0.0016199736126377
  31     0.001286202516611
  32    -0.0038539419392506
  33    -0.0011583626957072
  34    -0.0010196111893885
  35    2.194251790909e-05
  36    0.0012862025166109
  37    -0.0038539419392505
  38    -0.0010196111893885
  39    -0.0011583626957072
  40    2.1942517909077e-05
 Sym= A
 Ene=               5
 Spin= Alpha
 Occup=    1.00000
   1    -0.011189839649485
   2     0.048746954303173
   3    -0.00035472896788837
   4    -0.025751333203742
   5    0.00086664338913593
   6       1.2353574277949
   7     -0.47589143253754
   8    0.0041588739812847
   9    -0.0041588739812841
  10    0.0022801012142419
  11    -0.011189839649484
  12     0.048746954303172
  13     0.025751333203741
  14    0.00035472896788817
  15    0.00086664338913535
  16    -0.00073934613626085
  17    -0.0025042687336973
  18    -0.0011012598967044
  19    0.0011012598967054
  20    -0.00050014625968381
  21    0.0025503645332844
  22    -0.0074861710441786
  23    -0.0025780978121915
  24    0.0012591254441265
  25    -0.0012862005854585
  26     -0.01059938539501
  27     0.031220794734171
  28    -0.001512728482766
  29    -0.0062616493705848
  30     0.012638965464029
  31     -0.01059938539501
  32      0.03122079473417
  33    0.0062616493705856
  34    0.0015127284827653
  35     0.012638965464029
  36    0.0025503645332844
  37    -0.0074861710441788
  38    -0.0012591254441275
  39    0.0025780978121919
  40    -0.0012862005854586
 Sym= A
 Ene=               6
 Spin= Alpha
 Occup=    1.00000
   1     0.048746954303173
   2     -0.16626753639521
   3    0.0016811909424096
   4     0.056404881005327
   5    -0.0020614072899539
   6     -0.47589143253754
   7       1.3208099441412
   8    -0.011781797554668
   9     0.011781797554669
  10    -0.0056495776806665
  11     0.048746954303172
  12     -0.16626753639521
  13    -0.056404881005327
  14    -0.0016811909424096
  15    -0.0020614072899536
  16    -0.0025042687336973
  17     0.018579673451835
  18    0.0054567521191416
  19    -0.0054567521191413
  20    0.0014265097588692
  21    -0.0074861653423535
  22     0.022282967259945
  23    0.0073298531366903
  24    -0.0034013344682019
  25    0.0038539320734729
  26     0.031220803544699
  27    -0.088728616577922
  28    0.0025349651236812
  29     0.012995579293515
  30     -0.02487661926292
  31     0.031220803544699
  32    -0.088728616577922
  33    -0.012995579293515
  34    -0.0025349651236814
  35     -0.02487661926292
  36    -0.0074861653423539
  37     0.022282967259945
  38    0.0034013344682018
  39    -0.0073298531366901
  40    0.0038539320734726
 Sym= A
 Ene=               7
 Spin= Alpha
 Occup=    1.00000
   1    -0.00035472896788598
   2    0.0016811909424096
   3    -0.00067933009116428
   4    -0.00063284246149312
   5    -0.00013139059485827
   6    0.0041588739812847
   7    -0.011781797554668
   8       1.0036854820298
   9    8.6612158411423e-05
  10    9.6704079900313e-05
  11    -0.025751333203743
  12     0.056404881005327
  13    0.0086633711893801
  14    0.00063284246151282
  15    5.9105712168557e-05
  16    0.0011012598967054
  17    -0.0054567521191414
  18    -0.00016821921881531
  19    0.0031877045660493
  20    -0.00016254137743573
  21    -0.00093265262261124
  22    0.0027778810563089
  23    -0.00013898717148934
  24    -0.00058220940968923
  25    9.8111633995681e-05
  26    0.0033579855962633
  27    -0.0073967603172105
  28    0.00048049036903184
  29    0.00028022887221807
  30    -1.6553695417224e-05
  31    -0.0054973285220315
  32     0.010981786580931
  33    0.0013109856772924
  34    0.00055027241840982
  35    -0.00060773174096086
  36    0.0027133214316454
  37    -0.0075880857712961
  38    -0.00085384371536065
  39    0.0012970651514568
  40    -0.0015400547752838
 Sym= A
 Ene=               8
 Spin= Alpha
 Occup=    0.00000
   1     0.025751333203744
   2    -0.056404881005327
   3    0.00063284246152558
   4    0.0086633711893896
   5    -5.9105712167848e-05
   6    -0.0041588739812841
   7     0.011781797554669
   8    8.6612158411443e-05
   9       1.0036854820298
  10    -9.6704079900656e-05
  11    0.00035472896788533
  12    -0.0016811909424098
  13    -0.0006328424614927
  14    -0.00067933009116358
  15    0.0001313905948572
  16    -0.0011012598967043
  17    0.0054567521191417
  18    0.0031877045660455
  19    -0.00016821921881528
  20    0.00016254137743489
  21    -0.0027133214316457
  22    0.0075880857712959
  23    0.0012970651514497
  24    -0.00085384371536515
  25    0.0015400547752831
  26    0.0054973285220311
  27    -0.010981786580931
  28    0.00055027241840636
  29    0.0013109856772875
  30    0.00060773174095997
  31    -0.0033579855962648
  32      0.00739676031721
  33    0.00028022887221527
  34    0.00048049036904534
  35    1.6553695419178e-05
  36    0.00093265262260934
  37    -0.0027778810563093
  38    -0.00058220940967808
  39    -0.00013898717149295
  40    -9.8111633993563e-05
 Sym= A
 Ene=               9
 Spin= Alpha
 Occup=    0.00000
   1    0.00086664338913567
   2    -0.0020614072899537
   3    -0.00013139059485793
   4    5.9105712168894e-05
   5    -7.3627766890124e-06
   6    0.0022801012142419
   7    -0.0056495776806665
   8    9.6704079900315e-05
   9    -9.6704079900656e-05
  10       1.0015232241828
  11    0.00086664338913504
  12    -0.0020614072899538
  13    -5.9105712167807e-05
  14    0.00013139059485915
  15    -7.3627766832348e-06
  16    -0.00050014625968376
  17     0.001426509758869
  18    0.00016254137743481
  19    -0.0001625413774358
  20    -0.00021984715346685
  21    0.0012862025166112
  22     -0.00385394193925
  23    -0.0011583626957046
  24    0.0010196111893909
  25    2.1942517907204e-05
  26    -0.012638967679311
  27     0.024876618337818
  28    0.00044143973344809
  29    0.00041802962479785
  30    0.0016199736126423
  31    -0.012638967679311
  32     0.024876618337818
  33    -0.00041802962479894
  34    -0.00044143973344789
  35    0.0016199736126458
  36    0.0012862025166116
  37    -0.0038539419392506
  38     -0.00101961118939
  39    0.0011583626957038
  40    2.1942517911482e-05
 Sym= A
 Ene=              10
 Spin= Alpha
 Occup=    0.00000
   1    -0.0007393461362609
   2    -0.0025042687336969
   3    0.0011012598967082
   4    0.0011012598967084
   5    -0.00050014625968385
   6    -0.011189839649484
   7     0.048746954303172
   8    -0.025751333203743
   9    0.00035472896788534
  10    0.00086664338913505
  11       1.2353574277949
  12     -0.47589143253754
  13    -0.0041588739812828
  14    -0.0041588739812829
  15    0.0022801012142417
  16    -0.011189839649484
  17     0.048746954303172
  18    0.0003547289678854
  19    -0.025751333203743
  20    0.00086664338913509
  21    0.0025503645332833
  22    -0.0074861710441781
  23     0.002578097812192
  24    0.0012591254441248
  25    -0.0012862005854587
  26    0.0025503645332832
  27    -0.007486171044178
  28    0.0012591254441249
  29     0.002578097812192
  30    -0.0012862005854587
  31     -0.01059938539501
  32     0.031220794734171
  33    -0.0062616493705833
  34    0.0015127284827655
  35     0.012638965464028
  36     -0.01059938539501
  37     0.031220794734171
  38    0.0015127284827656
  39    -0.0062616493705833
  40     0.012638965464028
 Sym= A
 Ene=              11
 Spin= Alpha
 Occup=    0.00000
   1    -0.002504268733697
   2     0.018579673451834
   3    -0.0054567521191409
   4    -0.0054567521191412
   5     0.001426509758869
   6     0.048746954303172
   7     -0.16626753639521
   8     0.056404881005327
   9    -0.0016811909424098
  10    -0.0020614072899538
  11     -0.47589143253754
  12       1.3208099441412
  13     0.011781797554668
  14     0.011781797554668
  15    -0.0056495776806664
  16     0.048746954303172
  17     -0.16626753639521
  18     -0.00168119094241
  19     0.056404881005327
  20    -0.0020614072899538
  21    -0.0074861653423529
  22     0.022282967259944
  23    -0.0073298531366902
  24    -0.0034013344682019
  25    0.0038539320734727
  26    -0.0074861653423529
  27     0.022282967259944
  28    -0.0034013344682019
  29    -0.0073298531366902
  30    0.0038539320734727
  31     0.031220803544699
  32    -0.088728616577923
  33     0.012995579293516
  34    -0.0025349651236812
  35     -0.02487661926292
  36     0.031220803544699
  37    -0.088728616577923
  38    -0.0025349651236812
  39     0.012995579293516
  40     -0.02487661926292
 Sym= A
 Ene=              12
 Spin= Alpha
 Occup=    0.00000
   1    -0.0011012598967083
   2    0.0054567521191413
   3    -0.0001682192188173
   4    -0.0031877045660683
   5    0.0001625413774352
   6     0.025751333203741
   7    -0.056404881005327
   8    0.0086633711893802
   9    -0.00063284246149269
  10    -5.9105712167805e-05
  11    -0.0041588739812828
  12     0.011781797554668
  13       1.0036854820298
  14    -8.6612158429175e-05
  15    -9.6704079901317e-05
  16    0.00035472896788824
  17    -0.0016811909424097
  18    -0.00067933009116354
  19    0.00063284246151274
  20    0.00013139059485909
  21    0.0009326526226114
  22    -0.002777881056309
  23    -0.00013898717148993
  24    0.00058220940969193
  25    -9.8111633995203e-05
  26    -0.0027133214316456
  27    0.0075880857712961
  28    -0.00085384371535765
  29    -0.0012970651514523
  30    0.0015400547752868
  31    0.0054973285220313
  32    -0.010981786580931
  33    0.0013109856772832
  34    -0.00055027241840984
  35    0.00060773174095887
  36    -0.0033579855962626
  37    0.0073967603172104
  38    0.00048049036903569
  39    -0.0002802288722232
  40    1.6553695413085e-05
 Sym= A
 Ene=              13
 Spin= Alpha
 Occup=    0.00000
   1    -0.0011012598967083
   2    0.0054567521191413
   3    -0.0031877045660685
   4    -0.000168219218817
   5    0.00016254137743538
   6    0.00035472896788817
   7    -0.0016811909424096
   8    0.00063284246151285
   9    -0.00067933009116361
  10    0.00013139059485916
  11    -0.0041588739812828
  12     0.011781797554668
  13    -8.6612158429193e-05
  14       1.0036854820298
  15    -9.6704079901077e-05
  16     0.025751333203741
  17    -0.056404881005327
  18    -0.00063284246149256
  19    0.0086633711893803
  20    -5.9105712167846e-05
  21    -0.0027133214316455
  22    0.0075880857712961
  23    -0.0012970651514524
  24    -0.00085384371535752
  25    0.0015400547752866
  26    0.0009326526226114
  27    -0.0027778810563089
  28    0.00058220940969164
  29     -0.00013898717149
  30    -9.8111633995242e-05
  31    -0.0033579855962628
  32    0.0073967603172104
  33    -0.00028022887222311
  34    0.00048049036903586
  35    1.6553695413194e-05
  36    0.0054973285220314
  37    -0.010981786580931
  38    -0.00055027241840978
  39    0.0013109856772833
  40    0.0006077317409589
 Sym= A
 Ene=              14
 Spin= Alpha
 Occup=    0.00000
   1    -0.00050014625968393
   2    0.0014265097588693
   3    -0.00016254137743319
   4    -0.00016254137743329
   5    -0.00021984715346608
   6    0.00086664338913535
   7    -0.0020614072899536
   8    5.9105712168559e-05
   9    0.0001313905948572
  10    -7.3627766832603e-06
  11    0.0022801012142417
  12    -0.0056495776806664
  13    -9.6704079901314e-05
  14    -9.6704079901073e-05
  15       1.0015232241828
  16    0.00086664338913523
  17    -0.0020614072899537
  18    0.00013139059485725
  19    5.9105712168583e-05
  20    -7.3627766831968e-06
  21    0.0012862025166109
  22    -0.0038539419392503
  23     0.001158362695706
  24    0.0010196111893866
  25    2.1942517910342e-05
  26    0.0012862025166111
  27    -0.0038539419392506
  28    0.0010196111893865
  29    0.0011583626957061
  30    2.1942517910331e-05
  31    -0.012638967679311
  32     0.024876618337818
  33    0.00041802962480126
  34    -0.00044143973345038
  35    0.0016199736126497
  36     -0.01263896767931
  37     0.024876618337818
  38    -0.00044143973345037
  39    0.00041802962480131
  40    0.0016199736126497
 Sym= A
 Ene=              15
 Spin= Alpha
 Occup=    0.00000
   1    -0.011189839649485
   2     0.048746954303173
   3    -0.025751333203741
   4    -0.00035472896788813
   5    0.00086664338913535
   6    -0.00073934613626084
   7    -0.0025042687336973
   8    0.0011012598967054
   9    -0.0011012598967043
  10    -0.00050014625968376
  11    -0.011189839649484
  12     0.048746954303172
  13    0.00035472896788823
  14     0.025751333203741
  15    0.00086664338913523
  16       1.2353574277949
  17     -0.47589143253754
  18    -0.004158873981284
  19     0.004158873981285
  20    0.0022801012142422
  21     -0.01059938539501
  22     0.031220794734171
  23    -0.0062616493705847
  24    -0.001512728482766
  25     0.012638965464029
  26    0.0025503645332844
  27    -0.0074861710441789
  28    0.0012591254441266
  29    -0.0025780978121914
  30    -0.0012862005854583
  31    0.0025503645332846
  32    -0.0074861710441788
  33    0.0025780978121918
  34    -0.0012591254441275
  35    -0.0012862005854588
  36     -0.01059938539501
  37     0.031220794734171
  38    0.0015127284827653
  39    0.0062616493705855
  40     0.012638965464028
 Sym= A
 Ene=              16
 Spin= Alpha
 Occup=    0.00000
   1     0.048746954303173
   2     -0.16626753639521
   3     0.056404881005327
   4    0.0016811909424095
   5    -0.0020614072899535
   6    -0.0025042687336973
   7     0.018579673451835
   8    -0.0054567521191414
   9    0.0054567521191417
  10     0.001426509758869
  11     0.048746954303172
  12     -0.16626753639521
  13    -0.0016811909424097
  14    -0.056404881005327
  15    -0.0020614072899537
  16     -0.47589143253754
  17       1.3208099441412
  18     0.011781797554668
  19    -0.011781797554668
  20    -0.0056495776806664
  21     0.031220803544699
  22    -0.088728616577922
  23     0.012995579293515
  24    0.0025349651236813
  25     -0.02487661926292
  26    -0.0074861653423535
  27     0.022282967259945
  28    -0.0034013344682017
  29    0.0073298531366902
  30    0.0038539320734729
  31    -0.007486165342354
  32     0.022282967259945
  33     -0.00732985313669
  34    0.0034013344682018
  35    0.0038539320734729
  36     0.031220803544699
  37    -0.088728616577922
  38    -0.0025349651236814
  39    -0.012995579293515
  40     -0.02487661926292
 Sym= A
 Ene=              17
 Spin= Alpha
 Occup=    0.00000
   1     0.025751333203744
   2    -0.056404881005327
   3    0.0086633711893894
   4    0.00063284246152552
   5    -5.9105712167868e-05
   6    -0.0011012598967044
   7    0.0054567521191416
   8    -0.00016821921881532
   9    0.0031877045660455
  10    0.00016254137743481
  11    0.0003547289678854
  12     -0.00168119094241
  13    -0.0006793300911635
  14    -0.00063284246149254
  15    0.00013139059485725
  16    -0.004158873981284
  17     0.011781797554668
  18       1.0036854820298
  19    8.6612158411317e-05
  20    -9.670407990066e-05
  21    0.0054973285220312
  22    -0.010981786580931
  23    0.0013109856772879
  24    0.00055027241840631
  25    0.00060773174095985
  26    -0.0027133214316458
  27    0.0075880857712959
  28    -0.00085384371536517
  29    0.0012970651514498
  30    0.0015400547752831
  31    0.00093265262260927
  32    -0.0027778810563092
  33    -0.00013898717149254
  34    -0.00058220940967808
  35    -9.8111633993534e-05
  36    -0.0033579855962649
  37      0.00739676031721
  38    0.00048049036904536
  39    0.00028022887221558
  40    1.6553695419149e-05
 Sym= A
 Ene=              18
 Spin= Alpha
 Occup=    0.00000
   1    -0.00035472896788601
   2    0.0016811909424098
   3    -0.00063284246149307
   4    -0.00067933009116421
   5    -0.00013139059485827
   6    0.0011012598967054
   7    -0.0054567521191413
   8    0.0031877045660492
   9    -0.00016821921881533
  10    -0.0001625413774358
  11    -0.025751333203743
  12     0.056404881005327
  13    0.00063284246151276
  14    0.0086633711893803
  15    5.9105712168582e-05
  16     0.004158873981285
  17    -0.011781797554668
  18    8.6612158411288e-05
  19       1.0036854820298
  20    9.6704079900284e-05
  21    0.0033579855962632
  22    -0.0073967603172105
  23    0.00028022887221808
  24    0.00048049036903169
  25    -1.6553695417258e-05
  26    -0.00093265262261148
  27    0.0027778810563089
  28    -0.00058220940968902
  29    -0.00013898717148971
  30    9.8111633995681e-05
  31    0.0027133214316456
  32    -0.007588085771296
  33    0.0012970651514567
  34    -0.00085384371536081
  35    -0.0015400547752838
  36    -0.0054973285220316
  37     0.010981786580931
  38    0.0005502724184097
  39    0.0013109856772923
  40    -0.00060773174096091
 Sym= A
 Ene=              19
 Spin= Alpha
 Occup=    0.00000
   1    0.00086664338913574
   2    -0.0020614072899537
   3    5.9105712168776e-05
   4    -0.00013139059485799
   5    -7.3627766890528e-06
   6    -0.00050014625968381
   7    0.0014265097588692
   8    -0.00016254137743573
   9    0.00016254137743489
  10    -0.00021984715346683
  11    0.00086664338913509
  12    -0.0020614072899538
  13    0.00013139059485908
  14    -5.9105712167846e-05
  15    -7.3627766831965e-06
  16    0.0022801012142422
  17    -0.0056495776806664
  18    -9.6704079900664e-05
  19    9.6704079900281e-05
  20       1.0015232241828
  21    -0.012638967679311
  22     0.024876618337818
  23    0.00041802962479781
  24    0.00044143973344812
  25    0.0016199736126422
  26     0.001286202516611
  27    -0.0038539419392504
  28    0.0010196111893912
  29    -0.0011583626957047
  30    2.1942517907238e-05
  31    0.0012862025166114
  32    -0.0038539419392504
  33    0.0011583626957037
  34    -0.0010196111893899
  35    2.1942517911649e-05
  36    -0.012638967679311
  37     0.024876618337818
  38    -0.00044143973344787
  39    -0.00041802962479903
  40    0.0016199736126458
 Sym= A
 Ene=              20
 Spin= Alpha
 Occup=    0.00000
   1     -0.01059938539501
   2     0.031220803544699
   3    -0.0054973285220308
   4    0.0033579855962634
   5    -0.012638967679311
   6    0.0025503645332844
   7    -0.0074861653423534
   8    -0.00093265262261124
   9    -0.0027133214316457
  10    0.0012862025166111
  11    0.0025503645332833
  12    -0.0074861653423529
  13    0.0009326526226114
  14    -0.0027133214316455
  15    0.0012862025166109
  16     -0.01059938539501
  17     0.031220803544699
  18    0.0054973285220312
  19    0.0033579855962632
  20    -0.012638967679311
  21       1.2353574740123
  22     -0.47589155551725
  23    -2.3561134751491e-15
  24    0.0058815620180438
  25    -0.0022801018325855
  26    -0.011189800938996
  27      0.04874700595819
  28    -0.018459826564745
  29       0.0179581644619
  30    -0.00086664388999523
  31    -0.00073935686308373
  32    -0.0025042663252503
  33    -1.6481003760084e-15
  34    -0.0015574143547038
  35    0.00050014591826451
  36    -0.011189800938997
  37      0.04874700595819
  38     0.018459826564751
  39       0.0179581644619
  40    -0.00086664388999423
 Sym= A
 Ene=              21
 Spin= Alpha
 Occup=    0.00000
   1     0.031220794734171
   2    -0.088728616577923
   3     0.010981786580931
   4    -0.0073967603172104
   5     0.024876618337818
   6    -0.0074861710441786
   7     0.022282967259945
   8    0.0027778810563089
   9    0.0075880857712959
  10     -0.00385394193925
  11    -0.0074861710441781
  12     0.022282967259944
  13    -0.002777881056309
  14    0.0075880857712961
  15    -0.0038539419392503
  16     0.031220794734171
  17    -0.088728616577922
  18    -0.010981786580931
  19    -0.0073967603172105
  20     0.024876618337818
  21     -0.47589155551725
  22       1.3208103314182
  23    -2.1628249195039e-16
  24    -0.016662068484362
  25    0.0056495777016414
  26      0.04874700595819
  27     -0.16626796948521
  28     0.041073203675253
  29    -0.038695630034852
  30    0.0020614072469657
  31    -0.0025042663252506
  32     0.018579768333301
  33    -2.7482044554804e-16
  34    0.0077170474946074
  35    -0.0014265098934796
  36      0.04874700595819
  37     -0.16626796948522
  38    -0.041073203675252
  39    -0.038695630034852
  40     0.002061407246966
 Sym= A
 Ene=              22
 Spin= Alpha
 Occup=    0.00000
   1    0.0062616493705843
   2    -0.012995579293515
   3    0.0013109856772897
   4    -0.00028022887221788
   5    -0.00041802962480228
   6    -0.0025780978121915
   7    0.0073298531366903
   8    -0.00013898717148934
   9    0.0012970651514497
  10    -0.0011583626957046
  11     0.002578097812192
  12    -0.0073298531366902
  13    -0.00013898717148997
  14    -0.0012970651514524
  15     0.001158362695706
  16    -0.0062616493705847
  17     0.012995579293515
  18    0.0013109856772879
  19    0.00028022887221808
  20    0.00041802962479781
  21    -2.3588987473391e-15
  22    -2.1415095320232e-16
  23        1.003772117652
  24    -1.8580472349654e-14
  25    5.8740763239548e-16
  26       0.0179581644619
  27    -0.038695630034852
  28    0.0039920573223937
  29    -0.0040385480524154
  30    0.0001347003871577
  31    8.020669857387e-16
  32    -4.5230072923967e-17
  33    0.0030195065986572
  34    -5.9411414848367e-15
  35    -2.3627489900269e-16
  36    -0.017958164461902
  37     0.038695630034852
  38    0.0039920573224035
  39    0.0040385480524341
  40    -0.00013470038715755
 Sym= A
 Ene=              23
 Spin= Alpha
 Occup=    0.00000
   1    -0.0015127284827638
   2    0.0025349651236814
   3    -0.00055027241840483
   4    0.00048049036903987
   5     0.000441439733454
   6    0.0012591254441265
   7    -0.0034013344682019
   8    -0.00058220940968924
   9    -0.00085384371536515
  10    0.0010196111893909
  11    0.0012591254441248
  12    -0.0034013344682019