[Molden Format]
made by pyscf v[2.3.0]
[Atoms] (AU)
He   1   2     0.00000000000000     0.00000000000000     0.00000000000000
He   2   2     5.34495263898958     0.00000000000000     0.00000000000000
He   3   2     0.00000000000000     5.34495263898958     0.00000000000000
He   4   2     5.34495262009232     5.34495262009232     0.00000000000000
He   5   2     2.67247631004616     2.67247631004616     3.77945224913012
He   6   2     2.67247631004616     2.67247631004616    -3.77945224913012
He   7   2     2.67247631004616     2.67247631004616     0.00000000000000
[GTO]
1 0
 s    3 1.00
                 38.36   0.040176075383249
                  5.77    0.26136807476949
                  1.24    0.79307123949544
 s    1 1.00
                0.2976                   1
 p    1 1.00
                 1.275                   1

2 0
 s    3 1.00
                 38.36   0.040176075383249
                  5.77    0.26136807476949
                  1.24    0.79307123949544
 s    1 1.00
                0.2976                   1
 p    1 1.00
                 1.275                   1

3 0
 s    3 1.00
                 38.36   0.040176075383249
                  5.77    0.26136807476949
                  1.24    0.79307123949544
 s    1 1.00
                0.2976                   1
 p    1 1.00
                 1.275                   1

4 0
 s    3 1.00
                 38.36   0.040176075383249
                  5.77    0.26136807476949
                  1.24    0.79307123949544
 s    1 1.00
                0.2976                   1
 p    1 1.00
                 1.275                   1

5 0
 s    3 1.00
                 38.36   0.040176075383249
                  5.77    0.26136807476949
                  1.24    0.79307123949544
 s    1 1.00
                0.2976                   1
 p    1 1.00
                 1.275                   1

6 0
 s    3 1.00
                 38.36   0.040176075383249
                  5.77    0.26136807476949
                  1.24    0.79307123949544
 s    1 1.00
                0.2976                   1
 p    1 1.00
                 1.275                   1

7 0
 s    3 1.00
                 38.36   0.040176075383249
                  5.77    0.26136807476949
                  1.24    0.79307123949544
 s    1 1.00
                0.2976                   1
 p    1 1.00
                 1.275                   1

[5d]
[7f]
[9g]

[MO]
 Sym= A
 Ene=               0
 Spin= Alpha
 Occup=    1.00000
   1       1.2205359361953
   2     -0.44135530133792
   3    -0.00086717043719847
   4    -0.00086717043719838
   5    -7.4687449594493e-17
   6    -0.0010998015751481
   7    0.0014090936796848
   8    0.00029181025691556
   9    -0.00084389743358464
  10    -2.4063524031396e-18
  11    -0.001099801575148
  12    0.0014090936796848
  13    -0.00084389743358452
  14    0.00029181025691556
  15    -1.1376288155132e-19
  16    0.0020572679359481
  17    -0.0046131236697626
  18    0.00083874190869026
  19    0.00083874190869026
  20    -1.4481517191222e-20
  21    -0.0010998016335094
  22    0.0014090937840561
  23    -0.00027604360077849
  24    -0.00027604360077848
  25    0.00080306660836486
  26    -0.0010998016335093
  27    0.0014090937840561
  28    -0.00027604360077848
  29    -0.00027604360077848
  30    -0.00080306660836486
  31    -0.014753013130812
  32     0.037336201861162
  33    -0.0084870393748085
  34    -0.0084870393748086
  35    -7.9621097041904e-20
 Sym= A
 Ene=               1
 Spin= Alpha
 Occup=    1.00000
   1     -0.44135530133792
   2        1.230982020643
   3    0.0020784115715201
   4    0.0020784115715201
   5    4.3452642544819e-17
   6    0.0014090936631163
   7    -0.0014512010123322
   8    -0.00093064802642367
   9    0.0020345666845819
  10    5.6412567823612e-19
  11    0.0014090936631164
  12    -0.0014512010123321
  13    0.0020345666845817
  14    -0.00093064802642365
  15    1.0981847696515e-20
  16    -0.0046131236684272
  17     0.010975008094007
  18    -0.002025262796371
  19    -0.002025262796371
  20    3.4681604274903e-19
  21    0.0014090937765954
  22    -0.0014512012286344
  23    0.00055195935522858
  24    0.00055195935522858
  25    -0.0020967234331392
  26    0.0014090937765953
  27    -0.0014512012286344
  28    0.00055195935522857
  29    0.00055195935522858
  30    0.0020967234331392
  31     0.038123497257338
  32    -0.099939544555408
  33     0.017272012992247
  34     0.017272012992247
  35    -1.3578996935671e-20
 Sym= A
 Ene=               2
 Spin= Alpha
 Occup=    1.00000
   1    -0.00086717043719847
   2    0.0020784115715201
   3       1.0003724223132
   4    0.00037102252644926
   5    -1.2618822655134e-16
   6    -0.0002918102625277
   7    0.00093064803257683
   8    -0.00037010148987627
   9    0.0003703130372243
  10    -6.237073652472e-17
  11    -0.00084389744536004
  12    0.0020345667056312
  13    0.00037030029739831
  14    -0.00037031303997484
  15    3.8133799245399e-18
  16    -0.00083874190770806
  17    0.0020252627946548
  18    -0.00036965033844031
  19    -0.00037105012513908
  20    -2.6007035883604e-16
  21    -0.00056785384882542
  22     0.001482607364732
  23    7.4651710876693e-07
  24    -6.4711197101919e-07
  25    -0.00052362242874085
  26    -0.00056785384882535
  27    0.0014826073647319
  28    7.4651710924091e-07
  29    -6.4711197089689e-07
  30    0.0005236224287408
  31    0.0091713053706337
  32    -0.018743401117474
  33    0.00047275470080676
  34    0.00048459588266367
  35    -3.8139273106681e-17
 Sym= A
 Ene=               3
 Spin= Alpha
 Occup=    1.00000
   1    -0.00086717043719838
   2    0.0020784115715201
   3    0.00037102252644923
   4       1.0003724223132
   5    2.8032604563237e-16
   6    -0.00084389744536001
   7    0.0020345667056311
   8    -0.00037031303997457
   9    0.00037030029739847
  10    3.4105163207007e-17
  11    -0.00029181026252771
  12    0.0009306480325768
  13    0.00037031303722449
  14    -0.00037010148987603
  15    -7.5073375613488e-17
  16    -0.00083874190770812
  17    0.0020252627946547
  18    -0.00037105012513916
  19    -0.00036965033844039
  20    3.4370411439849e-16
  21    -0.00056785384882541
  22    0.0014826073647321
  23    -6.471119707996e-07
  24    7.4651710883771e-07
  25    -0.00052362242874088
  26    -0.00056785384882542
  27     0.001482607364732
  28    -6.4711197133442e-07
  29    7.4651710870068e-07
  30    0.00052362242874086
  31    0.0091713053706338
  32    -0.018743401117474
  33    0.00048459588266359
  34    0.00047275470080667
  35    5.3075878568343e-18
 Sym= A
 Ene=               4
 Spin= Alpha
 Occup=    1.00000
   1    -7.468532623412e-17
   2    4.3452642577201e-17
   3    -1.2351321093733e-16
   4    2.8182582498133e-16
   5       1.0000013997868
   6    -1.4821877451253e-16
   7    7.4976202315601e-17
   8    2.3283255251491e-15
   9    1.5461110509908e-15
  10    1.3936291276922e-06
  11    -3.1920867602151e-16
  12    1.7521808708299e-16
  13    1.5401696363001e-15
  14    2.098232952867e-15
  15    1.3936291270577e-06
  16    -1.535785838698e-16
  17    -2.9000593191344e-17
  18    3.7034568443412e-17
  19    -1.4418091883089e-16
  20    1.3997867299995e-06
  21    0.00039038460462796
  22    -0.00078058840726381
  23    7.9298468790375e-08
  24    7.9298468987223e-08
  25    9.9405148979736e-08
  26    -0.00039038460462813
  27    0.00078058840726375
  28    -7.9298472550193e-08
  29    -7.9298472986522e-08
  30    9.9405149868087e-08
  31    2.5289429664631e-16
  32    -1.2441122837498e-16
  33    -1.979328094829e-16
  34    -1.7013570363431e-16
  35    -1.1841179836953e-05
 Sym= A
 Ene=               5
 Spin= Alpha
 Occup=    1.00000
   1    -0.0010998015751481
   2    0.0014090936631163
   3    -0.0002918102625277
   4    -0.00084389744536001
   5    -1.4823026253549e-16
   6       1.2205359361315
   7     -0.44135530118944
   8    0.00086717041234104
   9    -0.00086717040654935
  10    3.3070803475072e-17
  11    0.0020572679002836
  12    -0.0046131235713273
  13    -0.00083874188027583
  14    0.00083874188585907
  15    -3.9527440486509e-17
  16    -0.0010998016670486
  17    0.0014090938450018
  18    0.00084389744711825
  19    0.00029181023730163
  20    1.8602718763763e-17
  21    -0.0010998016100749
  22    0.0014090937422642
  23    0.00027604359585604
  24    -0.00027604359411442
  25    0.0008030666056116
  26    -0.0010998016100748
  27    0.0014090937422638
  28    0.00027604359585594
  29    -0.00027604359411443
  30    -0.00080306660561155
  31    -0.014753013070331
  32     0.037336201475357
  33    0.0084870392313743
  34    -0.0084870391779577
  35    -6.551333978891e-17
 Sym= A
 Ene=               6
 Spin= Alpha
 Occup=    1.00000
   1    0.0014090936796848
   2    -0.0014512010123322
   3    0.00093064803257683
   4    0.0020345667056311
   5    7.4976204327904e-17
   6     -0.44135530118944
   7        1.230982020268
   8    -0.0020784115048953
   9     0.002078411490746
  10    2.0394224503809e-17
  11    -0.0046131235713273
  12     0.010975007813959
  13     0.002025262719909
  14    -0.0020252627336688
  15    -1.0342612299005e-17
  16    0.0014090938626851
  17    -0.0014512014042146
  18    -0.0020345667090536
  19    -0.00093064798204751
  20    -1.7048851409484e-16
  21    0.0014090937512616
  22    -0.0014512011897955
  23    -0.00055195934540863
  24    0.00055195934191073
  25    -0.0020967234119765
  26    0.0014090937512614
  27    -0.0014512011897952
  28    -0.00055195934540861
  29    0.00055195934191073
  30    0.0020967234119765
  31     0.038123496863809
  32    -0.099939543112762
  33    -0.017272012688959
  34     0.017272012579523
  35    -2.0312908866342e-17
 Sym= A
 Ene=               7
 Spin= Alpha
 Occup=    0.00000
   1    0.00029181025691557
   2    -0.00093064802642366
   3    -0.00037010148987627
   4    -0.00037031303997459
   5    2.330913679016e-15
   6    0.00086717041234104
   7    -0.0020784115048953
   8       1.0003724223003
   9    -0.00037102251079168
  10    -1.6221367304953e-15
  11    0.00083874188585907
  12    -0.0020252627336687
  13    -0.00036965032306418
  14    0.00037105011243991
  15    1.7397539086767e-15
  16    0.00084389743686732
  17    -0.0020345666938189
  18    0.00037030030004001
  19    0.00037031303986242
  20    -2.1760771273207e-15
  21    0.00056785383922962
  22    -0.0014826073395337
  23    7.4651713007442e-07
  24    6.4711198914109e-07
  25    0.00052362241972042
  26    0.00056785383922985
  27    -0.0014826073395338
  28    7.4651713559456e-07
  29    6.4711198939932e-07
  30    -0.00052362241972117
  31    -0.0091713052184173
  32     0.018743400793008
  33    0.00047275467973995
  34    -0.00048459585314215
  35    9.5924914265597e-16
 Sym= A
 Ene=               8
 Spin= Alpha
 Occup=    0.00000
   1    -0.00084389743358464
   2    0.0020345666845819
   3    0.00037031303722433
   4    0.00037030029739848
   5    1.5470305611125e-15
   6    -0.00086717040654935
   7     0.002078411490746
   8    -0.00037102251079171
   9       1.0003724222949
  10    -1.3353832978252e-15
  11    -0.00083874188027574
  12    0.0020252627199091
  13    0.0003710501070672
  14    -0.00036965032306401
  15    1.2391269765887e-15
  16    -0.00029181022451061
  17    0.00093064795921405
  18    -0.00037031303710481
  19    -0.00037010148697497
  20    -1.6830988750168e-15
  21    -0.00056785383529437
  22    0.0014826073290825
  23    6.4711200416666e-07
  24    7.4651714879258e-07
  25    -0.00052362241587235
  26    -0.00056785383529442
  27    0.0014826073290826
  28     6.47112008145e-07
  29    7.4651714905659e-07
  30    0.00052362241587272
  31    0.0091713051509243
  32    -0.018743400654213
  33    -0.00048459585262049
  34    0.0004727546730995
  35    4.4826042359882e-16
 Sym= A
 Ene=               9
 Spin= Alpha
 Occup=    0.00000
   1    -2.4079446048218e-18
   2    5.6412563709134e-19
   3    -6.0207550080638e-17
   4    3.8045896184443e-17
   5    1.3936291277346e-06
   6    3.3079168467297e-17
   7    2.0394222895976e-17
   8    -1.622790823554e-15
   9    -1.3362726870365e-15
  10       1.0000013997867
  11    -5.4433980514062e-17
  12    7.8328503552875e-17
  13    -1.1613993294751e-15
  14    -1.9574249847613e-15
  15    1.3997866620277e-06
  16    8.8873586357729e-17
  17    -5.3274163525834e-17
  18    -4.2725623727881e-16
  19    2.1657231789273e-16
  20    1.3936291259145e-06
  21    0.00039038459516123
  22    -0.00078058838832654
  23    -7.929846512728e-08
  24    7.9298467320486e-08
  25    9.9405146225718e-08
  26    -0.00039038459516126
  27    0.00078058838832653
  28    7.9298468142144e-08
  29    -7.929846399625e-08
  30    9.9405145513341e-08
  31    -1.7326493827536e-17
  32    -5.4441116388958e-18
  33    -4.6171357441166e-17
  34    -1.3802619180685e-16
  35    -1.1841177322738e-05
 Sym= A
 Ene=              10
 Spin= Alpha
 Occup=    0.00000
   1    -0.001099801575148
   2    0.0014090936631163
   3    -0.00084389744536005
   4    -0.00029181026252771
   5    -3.1919961153838e-16
   6    0.0020572679002836
   7    -0.0046131235713273
   8    0.00083874188585906
   9    -0.00083874188027574
  10    -5.4428039061677e-17
  11       1.2205359361315
  12     -0.44135530118944
  13    -0.00086717040654939
  14    0.00086717041234114
  15    1.673459367256e-18
  16    -0.0010998016670486
  17    0.0014090938450018
  18    0.00029181023730155
  19    0.00084389744711819
  20    -7.1286138880608e-17
  21    -0.0010998016100745
  22    0.0014090937422636
  23    -0.00027604359411435
  24    0.00027604359585608
  25    0.00080306660561152
  26    -0.001099801610075
  27    0.0014090937422643
  28    -0.00027604359411426
  29    0.00027604359585608
  30    -0.0008030666056116
  31    -0.014753013070331
  32     0.037336201475357
  33    -0.0084870391779577
  34    0.0084870392313743
  35    7.5502611094117e-17
 Sym= A
 Ene=              11
 Spin= Alpha
 Occup=    0.00000
   1    0.0014090936796848
   2    -0.0014512010123321
   3    0.0020345667056312
   4    0.0009306480325768
   5    1.7521808507187e-16
   6    -0.0046131235713273
   7     0.010975007813959
   8    -0.0020252627336687
   9    0.0020252627199091
  10    7.8328501946228e-17
  11     -0.44135530118944
  12        1.230982020268
  13     0.002078411490746
  14    -0.0020784115048952
  15    6.2258009992932e-17
  16    0.0014090938626851
  17    -0.0014512014042146
  18    -0.00093064798204737
  19    -0.0020345667090535
  20    1.9733342336046e-16
  21    0.0014090937512612
  22    -0.0014512011897951
  23    0.0005519593419107
  24    -0.00055195934540867
  25    -0.0020967234119763
  26    0.0014090937512619
  27    -0.0014512011897957
  28    0.00055195934191061
  29    -0.00055195934540869
  30    0.0020967234119764
  31     0.038123496863809
  32    -0.099939543112762
  33     0.017272012579523
  34    -0.017272012688959
  35    2.6424886855492e-17
 Sym= A
 Ene=              12
 Spin= Alpha
 Occup=    0.00000
   1    -0.00084389743358452
   2    0.0020345666845817
   3    0.00037030029739832
   4    0.0003703130372245
   5    1.5410633731507e-15
   6    -0.00083874188027583
   7     0.002025262719909
   8    -0.00036965032306419
   9    0.00037105010706725
  10    -1.1623602374756e-15
  11    -0.00086717040654939
  12     0.002078411490746
  13       1.0003724222949
  14    -0.00037102251079219
  15    1.4995793026337e-15
  16    -0.0002918102245106
  17    0.00093064795921416
  18    -0.00037010148697482
  19    -0.00037031303710492
  20    -1.6952279859429e-15
  21    -0.00056785383529437
  22    0.0014826073290825
  23    7.4651714719931e-07
  24    6.4711200614047e-07
  25    -0.00052362241587263
  26    -0.00056785383529442
  27    0.0014826073290826
  28    7.4651715132048e-07
  29    6.4711200660229e-07
  30    0.00052362241587212
  31    0.0091713051509244
  32    -0.018743400654213
  33    0.0004727546730993
  34    -0.00048459585262028
  35    3.3096541864541e-16
 Sym= A
 Ene=              13
 Spin= Alpha
 Occup=    0.00000
   1    0.00029181025691556
   2    -0.00093064802642365
   3    -0.00037031303997482
   4    -0.00037010148987603
   5    2.1007969218425e-15
   6    0.00083874188585908
   7    -0.0020252627336688
   8    0.00037105011243991
   9    -0.00036965032306398
  10    -1.9562590568557e-15
  11    0.00086717041234114
  12    -0.0020784115048952
  13    -0.00037102251079215
  14       1.0003724223003
  15    2.0616061379499e-15
  16    0.00084389743686709
  17    -0.0020345666938189
  18    0.00037031303986256
  19    0.00037030030003969
  20    -2.1639247220608e-15
  21    0.00056785383922982
  22    -0.0014826073395338
  23    6.4711198671338e-07
  24    7.465171326459e-07
  25    0.00052362241972076
  26    0.00056785383922981
  27    -0.0014826073395336
  28    6.4711199234661e-07
  29    7.4651713327438e-07
  30    -0.00052362241972079
  31    -0.0091713052184174
  32     0.018743400793008
  33    -0.00048459585314259
  34    0.00047275467974036
  35    1.0682688474729e-15
 Sym= A
 Ene=              14
 Spin= Alpha
 Occup=    0.00000
   1    -1.147334816097e-19
   2    1.0981833647751e-20
   3    2.7300149195189e-18
   4    -7.1203471833555e-17
   5    1.3936291270988e-06
   6    -3.9526492526215e-17
   7    -1.034261277965e-17
   8    1.7401953303372e-15
   9    1.2398036950416e-15
  10     1.39978666202e-06
  11    1.6749316380792e-18
  12    6.2258010472392e-17
  13    1.4986140130691e-15
  14    2.0608161205994e-15
  15       1.0000013997867
  16    2.8289740747077e-17
  17    -9.920450757217e-18
  18    1.3290993537343e-16
  19    -9.8247531125513e-17
  20    1.3936291268005e-06
  21    0.00039038459516123
  22    -0.0007805883883265
  23    7.9298463610077e-08
  24    -7.9298468120526e-08
  25    9.9405145512153e-08
  26    -0.00039038459516118
  27    0.00078058838832649
  28    -7.9298467190077e-08
  29    7.9298464961507e-08
  30    9.9405146357999e-08
  31    -1.3339654520856e-17
  32    -1.9991357500288e-18
  33    -1.0700526943822e-17
  34    3.3085094965661e-18
  35    -1.1841177322579e-05
 Sym= A
 Ene=              15
 Spin= Alpha
 Occup=    0.00000
   1    0.0020572679359481
   2    -0.0046131236684272
   3    -0.00083874190770807
   4    -0.00083874190770812
   5    -1.5357041976806e-16
   6    -0.0010998016670486
   7    0.0014090938626851
   8    0.00084389743686732
   9    -0.00029181022451061
  10    8.8871258633832e-17
  11    -0.0010998016670486
  12    0.0014090938626851
  13    -0.0002918102245106
  14    0.00084389743686709
  15    2.8288034624803e-17
  16       1.2205359361961
  17     -0.44135530133862
  18    0.00086717043635449
  19    0.00086717043635449
  20    7.3529027319763e-18
  21    -0.0010998016330918
  22    0.0014090937844264
  23    0.00027604360076804
  24    0.00027604360076803
  25    0.00080306660707348
  26    -0.0010998016330917
  27    0.0014090937844265
  28    0.00027604360076801
  29    0.00027604360076801
  30    -0.00080306660707347
  31    -0.014753013107457
  32     0.037336201810236
  33    0.0084870393744947
  34    0.0084870393744947
  35    -3.9899189195393e-18
 Sym= A
 Ene=              16
 Spin= Alpha
 Occup=    0.00000
   1    -0.0046131236697627
   2     0.010975008094007
   3    0.0020252627946548
   4    0.0020252627946547
   5    -2.9000593218019e-17
   6    0.0014090938450018
   7    -0.0014512014042146
   8    -0.0020345666938189
   9    0.00093064795921405
  10    -5.3274163548487e-17
  11    0.0014090938450018
  12    -0.0014512014042146
  13    0.00093064795921417
  14    -0.0020345666938189
  15    -9.9204507786237e-18
  16     -0.44135530133862
  17       1.2309820206428
  18    -0.0020784115698584
  19    -0.0020784115698583
  20    -4.7156114063636e-17
  21    0.0014090937756306
  22    -0.0014512012288207
  23    -0.00055195935522321
  24    -0.00055195935522322
  25    -0.0020967234307505
  26    0.0014090937756306
  27    -0.0014512012288207
  28    -0.00055195935522323
  29    -0.00055195935522324
  30    0.0020967234307505
  31     0.038123497214092
  32    -0.099939544456815
  33    -0.017272012992115
  34    -0.017272012992115
  35    -5.99701973634e-18
 Sym= A
 Ene=              17
 Spin= Alpha
 Occup=    0.00000
   1    0.00083874190869026
   2    -0.002025262796371
   3    -0.00036965033844024
   4    -0.00037105012513915
   5    3.4666611097295e-17
   6    0.00084389744711825
   7    -0.0020345667090536
   8    0.00037030030004001
   9    -0.00037031303710477
  10    -4.2298624050603e-16
  11    0.00029181023730155
  12    -0.00093064798204737
  13    -0.00037010148697483
  14    0.00037031303986257
  15    1.3730917497815e-16
  16    0.00086717043635449
  17    -0.0020784115698584
  18        1.000372422313
  19    0.00037102252620518
  20    -4.4311729938804e-16
  21    0.00056785384889439
  22    -0.0014826073647592
  23    7.4651715530972e-07
  24    -6.4711199264448e-07
  25    0.00052362242861429
  26    0.00056785384889435
  27    -0.0014826073647591
  28    7.4651715556692e-07
  29    -6.47111992614e-07
  30    -0.00052362242861419
  31    -0.0091713053683376
  32     0.018743401112042
  33    0.00047275470228149
  34    0.00048459588200449
  35    2.7223083059382e-17
 Sym= A
 Ene=              18
 Spin= Alpha
 Occup=    0.00000
   1    0.00083874190869026
   2    -0.002025262796371
   3    -0.00037105012513907
   4    -0.00036965033844038
   5    -1.4643909060983e-16
   6    0.00029181023730163
   7    -0.00093064798204751
   8    0.00037031303986241
   9    -0.00037010148697492
  10    2.2060307220893e-16
  11    0.00084389744711819
  12    -0.0020345667090535
  13    -0.00037031303710494
  14    0.00037030030003968
  15    -9.8370988587969e-17
  16    0.00086717043635449
  17    -0.0020784115698583
  18    0.00037102252620515
  19        1.000372422313
  20    3.657296499894e-16
  21    0.00056785384889442
  22    -0.0014826073647592
  23    -6.4711199235023e-07
  24    7.4651715567749e-07
  25    0.00052362242861425
  26    0.00056785384889435
  27    -0.0014826073647591
  28    -6.4711199254324e-07
  29    7.4651715561691e-07
  30    -0.00052362242861427
  31    -0.0091713053683376
  32     0.018743401112042
  33    0.00048459588200454
  34    0.00047275470228158
  35    1.0529678325555e-18
 Sym= A
 Ene=              19
 Spin= Alpha
 Occup=    0.00000
   1    -1.330507162158e-20
   2    3.4681602363562e-19
   3    -2.5755348011427e-16
   4    3.4537435052556e-16
   5    1.3997867300027e-06
   6    1.863012219001e-17
   7    -1.7048851565749e-16
   8    -2.177989689195e-15
   9    -1.6833461574638e-15
  10    1.3936291259031e-06
  11    -7.1311118767015e-17
  12    1.9733342161321e-16
  13    -1.695417171202e-15
  14    -2.1640428789477e-15
  15    1.3936291267627e-06
  16    7.3456855450436e-18
  17    -4.7156114063014e-17
  18    -4.3746343697355e-16
  19    3.6473313973726e-16
  20       1.0000013997868
  21    0.00039038460462766
  22    -0.00078058840726383
  23    -7.9298469211263e-08
  24    -7.9298468629648e-08
  25    9.940514965716e-08
  26    -0.0003903846046277
  27    0.00078058840726382
  28    7.9298472515362e-08
  29    7.9298472959363e-08
  30    9.9405148941754e-08
  31    2.6544131303683e-17
  32    -1.2635570650244e-17
  33    -6.3691844187773e-18
  34    -3.2639016782563e-17
  35    -1.1841179837147e-05
 Sym= A
 Ene=              20
 Spin= Alpha
 Occup=    0.00000
   1    -0.0010998016335094
   2    0.0014090937765954
   3    -0.00056785384882542
   4    -0.00056785384882541
   5    0.00039038460462796
   6    -0.0010998016100749
   7    0.0014090937512616
   8    0.00056785383922962
   9    -0.00056785383529437
  10    0.00039038459516123
  11    -0.0010998016100745
  12    0.0014090937512612
  13    -0.00056785383529437
  14    0.00056785383922981
  15    0.00039038459516123
  16    -0.0010998016330917
  17    0.0014090937756306
  18    0.00056785384889439
  19    0.00056785384889442
  20    0.00039038460462766
  21       1.2205359361652
  22     -0.44135530126764
  23    -5.2100635144548e-15
  24    -5.1906092928714e-15
  25    0.0012263641742332
  26      0.00205726791902
  27    -0.0046131236226911
  28    -5.2638977338543e-15
  29    -5.2891433662094e-15
  30    -0.0011861601650373
  31    -0.014753013095971
  32     0.037336201664674
  33    -1.5676902144182e-13
  34    -1.5678195274539e-13
  35      0.01200248607393
 Sym= A
 Ene=              21
 Spin= Alpha
 Occup=    0.00000
   1    0.0014090937840561
   2    -0.0014512012286344
   3     0.001482607364732
   4    0.0014826073647321
   5    -0.00078058840726381
   6    0.0014090937422642
   7    -0.0014512011897956
   8    -0.0014826073395337
   9    0.0014826073290825
  10    -0.00078058838832654
  11    0.0014090937422636
  12    -0.0014512011897951
  13    0.0014826073290825
  14    -0.0014826073395338
  15    -0.0007805883883265
  16    0.0014090937844264
  17    -0.0014512012288207
  18    -0.0014826073647592
  19    -0.0014826073647592
  20    -0.00078058840726383
  21     -0.44135530126764
  22        1.230982020465
  23     2.73167620717e-15
  24    2.7277544441305e-15
  25    -0.0029393177825516
  26    -0.004613123622691
  27     0.010975007961089
  28    2.7268589944454e-15
  29    2.7514833176652e-15
  30    0.0028641540666555
  31     0.038123497059201
  32    -0.099939543844801
  33    6.5700658387937e-14
  34    6.5672869498083e-14
  35    -0.024426314782774
 Sym= A
 Ene=              22
 Spin= Alpha
 Occup=    0.00000
   1    -0.00027604360077849
   2    0.00055195935522858
   3    7.4651710876833e-07
   4    -6.4711197080624e-07
   5    7.9298468832393e-08
   6    0.00027604359585604
   7    -0.00055195934540863
   8    7.4651713007438e-07
   9    6.4711200416895e-07
  10    -7.9298465103336e-08
  11    -0.00027604359411435
  12    0.0005519593419107
  13    7.465171472012e-07
  14    6.4711198668658e-07
  15    7.9298463600566e-08
  16    0.00027604360076804
  17    -0.00055195935522321
  18    7.4651715531405e-07
  19    -6.4711199235039e-07
  20    -7.9298469250935e-08
  21    -5.2100664799898e-15
  22     2.73167620732e-15
  23       1.0000013997868
  24    3.2271088382846e-14
  25    9.6914904758322e-15
  26    -5.3367371324444e-15
  27    2.7028357460557e-15
  28    1.3997866961209e-06
  29    3.135290776001e-14
  30    -9.2544699348499e-15
  31    -1.6362529133372e-13
  32    3.9244445909721e-13
  33    -1.1841178689481e-05
  34    9.0682673049575e-13
  35    -5.9579873993394e-16
 Sym= A
 Ene=              23
 Spin= Alpha
 Occup=    0.00000
   1    -0.00027604360077848
   2    0.00055195935522858
   3    -6.4711197100976e-07
   4    7.4651710886164e-07
   5    7.9298468980229e-08
   6    -0.00027604359411442
   7    0.00055195934191073
   8    6.4711198914657e-07
   9    7.465171488256e-07
  10    7.9298467314921e-08
  11    0.00027604359585608
  12    -0.00055195934540867
  13    6.4711200615883e-07
  14    7.4651713264999e-07
  15    -7.9298468128289e-08
  16    0.00027604360076803
  17    -0.00055195935522322
  18    -6.4711199264079e-07
  19    7.4651715566888e-07
  20    -7.9298468648154e-08
  21    -5.1906490270237e-15
  22    2.7277544450306e-15
  23    3.2272159662612e-14
  24       1.0000013997868
  25    9.0785053390073e-15
  26    -5.3462941692504e-15
  27    2.7057835022528e-15
  28    2.6879637968433e-14
  29    1.3997866958079e-06
  30    -8.8739582211943e-15
  31    -1.6364234581267e-13
  32    3.9248453657947e-13
  33    9.0706966596073e-13
  34    -1.1841178689744e-05
  35    -8.7722458962623e-16
 Sym= A
 Ene=              24
 Spin= Alpha
 Occup=    0.00000
   1    0.00080306660836486
   2    -0.0020967234331392
   3    -0.00052362242874086
   4    -0.00052362242874089
   5    9.9405148979765e-08
   6    0.00080306660561161
   7    -0.0020967234119765
   8    0.00052362241972038
   9    -0.00052362241587233
  10    9.9405146225681e-08
  11    0.00080306660561152
  12    -0.0020967234119763
  13    -0.00052362241587262
  14    0.00052362241972076
  15    9.9405145510345e-08
  16    0.00080306660707348
  17    -0.0020967234307505
  18    0.00052362242861431
  19    0.00052362242861427
  20    9.9405149658094e-08
  21    0.0012263641742332
  22    -0.0029393177825516
  23    9.691217421005e-15
  24    9.0782395621525e-15
  25       1.0007434448247
  26    0.0011861601650372
  27    -0.0028641540666555
  28    8.4028777438994e-15
  29    8.8945727662985e-15
  30    -0.00074070044897933
  31    -0.012970184314142
  32     0.026507171798946
  33    2.887784506629e-13
  34    2.8830664183751e-13
  35    0.00095735055797386
 Sym= A
 Ene=              25
 Spin= Alpha
 Occup=    0.00000
   1    -0.0010998016335093
   2    0.0014090937765953
   3    -0.00056785384882535
   4    -0.00056785384882542
   5    -0.00039038460462813
   6    -0.0010998016100748
   7    0.0014090937512614
   8    0.00056785383922985
   9    -0.00056785383529442
  10    -0.00039038459516126
  11    -0.001099801610075
  12    0.0014090937512619
  13    -0.00056785383529442
  14    0.00056785383922981
  15    -0.00039038459516118
  16    -0.0010998016330916
  17    0.0014090937756306
  18    0.00056785384889436
  19    0.00056785384889435
  20    -0.0003903846046277
  21      0.00205726791902
  22    -0.004613123622691
  23    -5.3367383603816e-15
  24    -5.3463084714487e-15
  25    0.0011861601650372
  26       1.2205359361652
  27     -0.44135530126764
  28    -5.307823163721e-15
  29    -5.2673312950262e-15
  30    -0.0012263641742331
  31    -0.014753013095971
  32     0.037336201664674
  33    -1.5667417636924e-13
  34    -1.5683156626338e-13
  35     -0.01200248607393
 Sym= A
 Ene=              26
 Spin= Alpha
 Occup=    0.00000
   1    0.0014090937840561
   2    -0.0014512012286344
   3    0.0014826073647319
   4     0.001482607364732
   5    0.00078058840726375
   6    0.0014090937422638
   7    -0.0014512011897952
   8    -0.0014826073395338
   9    0.0014826073290826
  10    0.00078058838832653
  11    0.0014090937422643
  12    -0.0014512011897957
  13    0.0014826073290826
  14    -0.0014826073395336