[Molden Format]
made by pyscf v[2.3.0]
[Atoms] (AU)
He   1   2     0.00000000000000    -1.60093817820903    -4.78104488967210
He   2   2     0.00000000000000     1.60093817820903    -4.78104488967210
He   3   2     0.00000000000000     1.60105156177650    -1.58924077349797
He   4   2     0.00000000000000    -1.60105156177650    -1.58924077349797
He   5   2     0.00000000000000    -1.60105156177650     1.58924077349797
He   6   2     0.00000000000000     1.60105156177650     1.58924077349797
He   7   2     0.00000000000000     1.60093817820903     4.78104488967210
He   8   2     0.00000000000000    -1.60093817820903     4.78104488967210
[GTO]
1 0
 s    3 1.00
                 38.36   0.040176075383249
                  5.77    0.26136807476949
                  1.24    0.79307123949544
 s    1 1.00
                0.2976                   1
 p    1 1.00
                 1.275                   1

2 0
 s    3 1.00
                 38.36   0.040176075383249
                  5.77    0.26136807476949
                  1.24    0.79307123949544
 s    1 1.00
                0.2976                   1
 p    1 1.00
                 1.275                   1

3 0
 s    3 1.00
                 38.36   0.040176075383249
                  5.77    0.26136807476949
                  1.24    0.79307123949544
 s    1 1.00
                0.2976                   1
 p    1 1.00
                 1.275                   1

4 0
 s    3 1.00
                 38.36   0.040176075383249
                  5.77    0.26136807476949
                  1.24    0.79307123949544
 s    1 1.00
                0.2976                   1
 p    1 1.00
                 1.275                   1

5 0
 s    3 1.00
                 38.36   0.040176075383249
                  5.77    0.26136807476949
                  1.24    0.79307123949544
 s    1 1.00
                0.2976                   1
 p    1 1.00
                 1.275                   1

6 0
 s    3 1.00
                 38.36   0.040176075383249
                  5.77    0.26136807476949
                  1.24    0.79307123949544
 s    1 1.00
                0.2976                   1
 p    1 1.00
                 1.275                   1

7 0
 s    3 1.00
                 38.36   0.040176075383249
                  5.77    0.26136807476949
                  1.24    0.79307123949544
 s    1 1.00
                0.2976                   1
 p    1 1.00
                 1.275                   1

8 0
 s    3 1.00
                 38.36   0.040176075383249
                  5.77    0.26136807476949
                  1.24    0.79307123949544
 s    1 1.00
                0.2976                   1
 p    1 1.00
                 1.275                   1

[5d]
[7f]
[9g]

[MO]
 Sym= A
 Ene=               0
 Spin= Alpha
 Occup=    1.00000
   1       1.2312596224236
   2     -0.46756768978892
   3    -4.7372999275812e-17
   4    -0.0042058665685911
   5    -0.004520169808121
   6    -0.012265579413125
   7     0.052220019092513
   8    1.2776055849157e-16
   9    -0.026399039053215
  10    0.00020978958147084
  11    0.00057309865665648
  12    -0.0061864492706713
  13    -1.572965399396e-18
  14    0.0015273970001923
  15    0.0013512859922769
  16    -0.013541175997754
  17     0.055706245525565
  18    -4.2932809523233e-17
  19    0.00021885894540047
  20    -0.025794381037928
  21    0.0037498105759886
  22    -0.010908917208366
  23    1.1827345404601e-17
  24    -6.4125353184128e-05
  25     0.003539838620046
  26    -0.00018136456142533
  27    0.0012476810058304
  28    4.0672224841879e-18
  29    -0.00043870145322807
  30    -0.00014968638115966
  31    4.3808049508759e-05
  32    -0.00026359293978036
  33    1.1445847288765e-19
  34    9.3467655589874e-05
  35    3.2673907426599e-05
  36    -0.00078845112504626
  37    0.0021796287500808
  38    -1.8264334411429e-19
  39    1.4369912011491e-05
  40    -0.00074664755455853
 Sym= A
 Ene=               1
 Spin= Alpha
 Occup=    1.00000
   1     -0.46756768978892
   2        1.302976218276
   3    4.7729335513895e-17
   4     0.012024680950976
   5     0.012948702905283
   6     0.052220019092512
   7     -0.17740271528742
   8    -7.4198460064978e-17
   9     0.058404501291607
  10    -0.0014233379276948
  11    -0.0063084077242275
  12     0.029869988786408
  13    -3.4894708834912e-18
  14    -0.0068583704782691
  15    -0.0061502768574006
  16     0.056282486633942
  17     -0.18842529841188
  18    6.1498568078695e-17
  19    -0.001429251736545
  20     0.056573141160723
  21    -0.010965362959935
  22     0.034133334883304
  23    5.0327212551225e-18
  24    0.00027595922300473
  25    -0.010900686596569
  26    0.0012660803030825
  27    -0.005799729425115
  28    4.8051623166952e-18
  29     0.001304994947502
  30    0.0011651881400908
  31    -0.00026359293978053
  32     0.001143198168708
  33    1.9998078285826e-18
  34    -0.00025949905975269
  35    -0.00024159417322389
  36    0.0021796287500807
  37    -0.0063833935389311
  38    4.6428379865536e-19
  39    -5.6299897583195e-05
  40    0.0022107012372766
 Sym= A
 Ene=               2
 Spin= Alpha
 Occup=    1.00000
   1    -4.7372999275812e-17
   2    4.7729335513895e-17
   3       1.0000016461061
   4    -1.3636884179041e-17
   5    5.854733501631e-17
   6    -1.2043463149022e-16
   7    7.0990147903768e-18
   8    -0.0007253887885982
   9    1.2446733433661e-16
  10    -9.7959811068415e-17
  11    -3.6228400915188e-17
  12    2.6910138384429e-16
  13    5.479870811849e-07
  14    1.9555062890265e-16
  15    1.1782323342188e-16
  16    4.1626702092852e-16
  17    -3.2274743874388e-16
  18    -0.00075579000054105
  19    -3.0547398061931e-16
  20    -7.2496954732873e-17
  21    -1.9553865401144e-16
  22    1.6359238027624e-16
  23    9.0445796882253e-07
  24    -7.9245523724987e-18
  25    2.5006935657461e-17
  26    -6.0251688105225e-17
  27    1.9470616479915e-17
  28    -6.558486232049e-10
  29    -1.9732676714588e-17
  30    7.1427378591153e-17
  31    -2.3027645430309e-17
  32    1.0462763581257e-16
  33    8.0525964627572e-13
  34    2.7960145368684e-17
  35    -3.4108530616277e-18
  36    8.3694696980146e-17
  37    -1.9350506515867e-16
  38    -1.139295500394e-09
  39    1.4042959076145e-16
  40    1.0885459246477e-17
 Sym= A
 Ene=               3
 Spin= Alpha
 Occup=    1.00000
   1    -0.0042058665685911
   2     0.012024680950976
   3    -1.363688417904e-17
   4        1.003708766631
   5    7.9475659852239e-05
   6     0.026399039053215
   7    -0.058404501291607
   8    1.8658003226371e-16
   9    0.0096268124470063
  10    -0.00055330220600866
  11    -0.001522321760674
  12    0.0067730257742133
  13    7.3788396586916e-17
  14    -4.9686377522728e-05
  15    -0.0034836850980583
  16    0.00021611517670493
  17    -0.0014002459733799
  18     1.53348188396e-17
  19    -0.00093659247059589
  20    0.00050656763651451
  21    -6.3833433373476e-05
  22    0.00027204102063396
  23    2.5153891517077e-17
  24    5.2360303306287e-05
  25    -5.9472272650642e-05
  26    0.00043795851992433
  27    -0.001295612487878
  28    2.9777390006495e-17
  29    1.2401659442568e-05
  30    0.00042460618475685
  31    -9.3467655592851e-05
  32    0.00025949905975295
  33    4.5580549987831e-17
  34    -2.7847544285757e-06
  35    -8.828212205059e-05
  36    1.4369912010449e-05
  37    -5.6299897583211e-05
  38    -6.7585095788362e-19
  39    -1.1184296181772e-05
  40    1.2466658536105e-05
 Sym= A
 Ene=               4
 Spin= Alpha
 Occup=    1.00000
   1    -0.004520169808121
   2     0.012948702905283
   3    5.8547335016308e-17
   4    7.9475659852233e-05
   5       1.0040303362765
   6    0.00020978958147107
   7    -0.0014233379276947
   8    -8.2067518080666e-17
   9    0.00055330220599045
  10    -0.00090689514610894
  11    -0.0014961769907389
  12    0.0068815914887116
  13    -3.7988951049373e-17
  14    -0.0037480997834966
  15    -8.6800582878468e-06
  16     0.027974375705441
  17    -0.062436935986396
  18    -5.2129380207592e-17
  19    -0.0005506912344099
  20    0.0091098779555616
  21    -0.0039496111671069
  22     0.012002387531412
  23    1.9014998741491e-17
  24    6.8076523580906e-05
  25    -0.0036636059551303
  26    0.00017919694882321
  27    -0.0013077791913894
  28    -4.1671932342796e-17
  29    0.00047440898159263
  30     0.000176670225954
  31    -3.2673907423824e-05
  32    0.00024159417322408
  33    -3.2038061195683e-17
  34    -8.8282122060983e-05
  35    -3.3006487414131e-05
  36    0.00074664755455947
  37    -0.0022107012372766
  38    -1.068291182886e-16
  39    -1.246665853627e-05
  40    0.00077056423371144
 Sym= A
 Ene=               5
 Spin= Alpha
 Occup=    1.00000
   1    -0.012265579413125
   2     0.052220019092512
   3    -1.2043463149022e-16
   4     0.026399039053215
   5    0.00020978958147107
   6       1.2312596224236
   7     -0.46756768978893
   8    2.4564150905552e-17
   9    0.0042058665685902
  10    -0.0045201698081268
  11    -0.013541175997752
  12     0.055706245525563
  13    -1.2183303266742e-17
  14    -0.00021885894539879
  15    -0.025794381037924
  16    0.00057309865665723
  17    -0.0061864492706685
  18    -2.0847186540153e-17
  19    -0.0015273970001904
  20     0.001351285992277
  21    -0.00018136456142499
  22    0.0012476810058322
  23    -6.4792376941992e-17
  24    0.00043870145323028
  25    -0.00014968638116032
  26    0.0037498105759877
  27    -0.010908917208367
  28    -6.7031501998466e-17
  29    6.4125353183917e-05
  30    0.0035398386200553
  31    -0.00078845112504767
  32    0.0021796287500802
  33    -9.8181733845089e-18
  34    -1.4369912012547e-05
  35    -0.00074664755455767
  36    4.3808049509164e-05
  37    -0.00026359293978116
  38    -2.9986770234961e-17
  39    -9.346765559032e-05
  40    3.2673907425474e-05
 Sym= A
 Ene=               6
 Spin= Alpha
 Occup=    1.00000
   1     0.052220019092513
   2     -0.17740271528742
   3    7.0990147903768e-18
   4    -0.058404501291607
   5    -0.0014233379276947
   6     -0.46756768978893
   7        1.302976218276
   8    -6.2459909379232e-18
   9    -0.012024680950976
  10     0.012948702905282
  11     0.056282486633941
  12     -0.18842529841188
  13    -1.0221188879056e-17
  14    0.0014292517365448
  15     0.056573141160724
  16    -0.0063084077242247
  17     0.029869988786409
  18    -3.0728653552508e-17
  19    0.0068583704782691
  20    -0.0061502768574002
  21    0.0012660803030837
  22    -0.0057997294251147
  23    -1.0208997188684e-17
  24    -0.0013049949475019
  25    0.0011651881400901
  26    -0.010965362959935
  27     0.034133334883304
  28    -4.3446575357841e-17
  29    -0.00027595922300486
  30    -0.010900686596569
  31    0.0021796287500801
  32    -0.0063833935389319
  33    -4.2483070510227e-18
  34    5.6299897583138e-05
  35    0.0022107012372767
  36    -0.00026359293978082
  37    0.0011431981687087
  38    -1.920490299584e-17
  39    0.00025949905975265
  40    -0.00024159417322391
 Sym= A
 Ene=               7
 Spin= Alpha
 Occup=    1.00000
   1    1.2776055849157e-16
   2    -7.4198460064978e-17
   3    -0.00072538878859816
   4    1.8658003226371e-16
   5    -8.2067518080666e-17
   6    2.4564150905552e-17
   7    -6.2459909379232e-18
   8        1.000001646106
   9    1.1424484735237e-17
  10    -4.1686325163104e-17
  11    7.0784400244572e-17
  12    1.8112315338124e-17
  13    -0.00075579000048768
  14    1.807739038322e-16
  15    -1.0683213834846e-16
  16    -5.0799434930936e-17
  17    1.9609060930662e-17
  18    5.4798712546824e-07
  19    -5.7326723188789e-17
  20    -1.3107433332056e-16
  21    4.4507090965218e-17
  22    -1.1689198038129e-16
  23    -6.5587806964667e-10
  24    8.9578137879255e-17
  25    -8.6529461068227e-17
  26    1.8582893601824e-16
  27    -1.4425739853049e-17
  28    9.0445792513404e-07
  29    -7.1109260362807e-17
  30    -5.5980605744181e-17
  31    5.9518058465021e-17
  32    -1.2381964178584e-16
  33    -1.1392862579135e-09
  34    8.8006898175967e-17
  35    -6.3093363667853e-17
  36    -1.5675853491752e-16
  37    4.6867233551199e-17
  38    8.4234848208737e-13
  39    9.7209919819347e-17
  40    1.0098295443148e-16
 Sym= A
 Ene=               8
 Spin= Alpha
 Occup=    0.00000
   1    -0.026399039053215
   2     0.058404501291607
   3    1.2446733433661e-16
   4    0.0096268124470063
   5    0.00055330220599045
   6    0.0042058665685902
   7    -0.012024680950976
   8    1.1424484735237e-17
   9        1.003708766631
  10    -7.9475659840559e-05
  11    -0.00021611517670505
  12    0.0014002459733798
  13    1.1055122406851e-16
  14    -0.00093659247060356
  15    -0.00050656763651984
  16    0.0015223217606779
  17    -0.0067730257742133
  18    1.9279155815507e-17
  19    -4.9686377522679e-05
  20    0.0034836850980729
  21    -0.00043795851992642
  22    0.0012956124878775
  23    1.152433099184e-16
  24    1.240165944506e-05
  25    -0.00042460618473708
  26    6.3833433377353e-05
  27    -0.00027204102063311
  28    2.4694258098003e-17
  29    5.2360303307942e-05
  30    5.9472272662006e-05
  31    -1.4369912012457e-05
  32    5.6299897583036e-05
  33    3.4793079108219e-17
  34    -1.1184296182936e-05
  35    -1.2466658513233e-05
  36    9.3467655590103e-05
  37    -0.0002594990597526
  38    6.5163123509267e-17
  39    -2.7847544264207e-06
  40    8.8282122050007e-05
 Sym= A
 Ene=               9
 Spin= Alpha
 Occup=    0.00000
   1    0.00020978958147085
   2    -0.0014233379276948
   3    -9.7959811068414e-17
   4    -0.00055330220600866
   5    -0.00090689514610893
   6    -0.0045201698081268
   7     0.012948702905282
   8    -4.1686325163104e-17
   9    -7.9475659840559e-05
  10       1.0040303362765
  11     0.027974375705428
  12    -0.062436935986397
  13    1.3938199059546e-17
  14    0.00055069123443901
  15    0.0091098779554908
  16    -0.0014961769907356
  17    0.0068815914887114
  18    1.504047785711e-16
  19    0.0037480997835114
  20    -8.6800582994128e-06
  21    0.00017919694883297
  22    -0.0013077791913892
  23    -1.5807783759247e-16
  24    -0.00047440898159737
  25    0.00017667022594965
  26    -0.0039496111670757
  27     0.012002387531415
  28    1.9166819317694e-17
  29    -6.8076523538646e-05
  30    -0.003663605955137
  31    0.00074664755455881
  32    -0.0022107012372765
  33    -4.3143791311365e-17
  34    1.2466658530807e-05
  35    0.0007705642338689
  36    -3.2673907424942e-05
  37    0.00024159417322406
  38    8.283392166969e-18
  39    8.8282122046743e-05
  40    -3.3006487387792e-05
 Sym= A
 Ene=              10
 Spin= Alpha
 Occup=    0.00000
   1    0.00057309865665651
   2    -0.0063084077242275
   3    -3.6228400915188e-17
   4    -0.001522321760674
   5    -0.0014961769907389
   6    -0.013541175997752
   7     0.056282486633941
   8    7.0784400244572e-17
   9    -0.00021611517670505
  10     0.027974375705428
  11       1.2392316342568
  12     -0.48654953938516
  13    2.437496440297e-17
  14    0.0043957108333427
  15    -0.00034847979120576
  16     -0.01302890703246
  17     0.055075022116981
  18    7.6934419351047e-17
  19      0.02738621993045
  20    2.3393648422821e-05
  21    0.00068595045838486
  22    -0.0068177892307307
  23    -1.4474926054432e-17
  24    -0.0016673644256541
  25    0.0014788971571239
  26    -0.014750221894551
  27     0.059834024758454
  28    3.7927842124642e-17
  29    -0.00024520923833805
  30    -0.027449837457037
  31    0.0037498105759864
  32    -0.010965362959934
  33    1.6934465890331e-17
  34    6.3833433373624e-05
  35    0.0039496111670791
  36    -0.00018136456142572
  37    0.0012660803030833
  38    2.4213307667162e-17
  39    0.00043795851992454
  40    -0.00017919694882578
 Sym= A
 Ene=              11
 Spin= Alpha
 Occup=    0.00000
   1    -0.0061864492706712
   2     0.029869988786408
   3    2.6910138384429e-16
   4    0.0067730257742133
   5    0.0068815914887116
   6     0.055706245525563
   7     -0.18842529841188
   8    1.8112315338124e-17
   9    0.0014002459733798
  10    -0.062436935986397
  11     -0.48654953938516
  12       1.3531279659383
  13    3.9277302684929e-17
  14    -0.012601728654402
  15    0.0010386633020023
  16     0.055075022116981
  17     -0.18719691807175
  18    -6.0875145929979e-17
  19    -0.060756379384397
  20    -0.00013490372262378
  21    -0.0068177892307313
  22      0.03215912316887
  23    1.4571391593337e-17
  24    0.0072854310316434
  25    -0.0067030300445321
  26     0.059834024758453
  27     -0.20011433930235
  28    -3.0473462789822e-17
  29    0.0015295952138107
  30     0.060843880250988
  31    -0.010908917208366
  32     0.034133334883303
  33    3.9305944557399e-17
  34    -0.00027204102063379
  35    -0.012002387531414
  36    0.0012476810058315
  37    -0.0057997294251149
  38    -2.7628645947398e-17
  39    -0.0012956124878779
  40    0.0013077791913893
 Sym= A
 Ene=              12
 Spin= Alpha
 Occup=    0.00000
   1    -1.5729653993958e-18
   2    -3.4894708834913e-18
   3    5.479870812273e-07
   4    7.3788396586917e-17
   5    -3.7988951049372e-17
   6    -1.2183303266742e-17
   7    -1.0221188879056e-17
   8    -0.00075579000048766
   9    1.1055122406851e-16
  10    1.3938199059546e-17
  11    2.4374964402971e-17
  12    3.9277302684929e-17
  13       1.0000025993895
  14    1.4148246405023e-16
  15    -1.2076738257361e-17
  16    1.2486862918073e-17
  17    -2.4843756596826e-17
  18    -0.00072471823493332
  19    1.6538892539185e-16
  20    -1.3728786911273e-16
  21    -1.0202307931403e-17
  22    -1.2711947754883e-16
  23    5.7818494830711e-07
  24    2.1516165225226e-16
  25    1.1326855663013e-16
  26    1.2739258501472e-17
  27    -3.794645343444e-18
  28    -0.00079780859302872
  29    -8.6791046570965e-17
  30    7.1689436773871e-17
  31    -2.8031284117689e-18
  32    1.5365672104503e-17
  33    9.044579620774e-07
  34    -4.5508204123962e-17
  35    -5.3810147071567e-17
  36    -3.4220339316002e-17
  37    2.9771629626155e-17
  38    -6.5589973091076e-10
  39    4.483858285265e-17
  40    2.4933693238563e-16
 Sym= A
 Ene=              13
 Spin= Alpha
 Occup=    0.00000
   1    0.0015273970001923
   2    -0.0068583704782691
   3    1.9555062890265e-16
   4    -4.9686377522742e-05
   5    -0.0037480997834966
   6    -0.0002188589453988
   7    0.0014292517365448
   8    1.807739038322e-16
   9    -0.00093659247060361
  10    0.00055069123443899
  11    0.0043957108333427
  12    -0.012601728654402
  13    1.4148246405023e-16
  14       1.0038326147228
  15    -6.8449278884249e-06
  16    -0.027386219930456
  17     0.060756379384397
  18    1.0628943071142e-16
  19    0.0096552233329164
  20    4.2381867530406e-05
  21    0.0016673644256513
  22    -0.007285431031643
  23    1.569708674066e-17
  24    -5.5091878519627e-05
  25    0.0037019245765143
  26    -0.0002452092383367
  27    0.0015295952138108
  28    -3.3496309361082e-17
  29    -0.00099602830839697
  30    -0.00054387003875131
  31    6.4125353183858e-05
  32    -0.00027595922300522
  33    -6.6309415938987e-17
  34    5.2360303315661e-05
  35    6.8076523548235e-05
  36    -0.00043870145322507
  37    0.0013049949475017
  38    -6.2811143714742e-17
  39    1.240165945855e-05
  40    -0.00047440898160324
 Sym= A
 Ene=              14
 Spin= Alpha
 Occup=    0.00000
   1    0.0013512859922769
   2    -0.0061502768574006
   3    1.1782323342189e-16
   4    -0.0034836850980583
   5    -8.6800582878095e-06
   6    -0.025794381037923
   7     0.056573141160724
   8    -1.0683213834846e-16
   9    -0.00050656763651984
  10    0.0091098779554907
  11    -0.00034847979120576
  12    0.0010386633020023
  13    -1.2076738257363e-17
  14    -6.8449278884236e-06
  15       1.0075744320765
  16    2.339364842281e-05
  17    -0.00013490372262404
  18    1.0644683605408e-16
  19    -4.2381867510597e-05
  20    -0.0010610102481071
  21    -0.001478897157121
  22     0.006703030044532
  23    -1.3246408906189e-16
  24    0.0037019245765421
  25    1.6772423201945e-05
  26     0.027449837457038
  27    -0.060843880250988
  28    3.6667609774929e-17
  29    0.00054387003873338
  30     0.008873074599859
  31    -0.0035398386200582
  32     0.010900686596569
  33    1.8608506711543e-17
  34    -5.9472272666198e-05
  35    -0.0036636059551291
  36    0.00014968638115846
  37    -0.0011651881400907
  38    8.4858396139062e-17
  39    -0.00042460618473853
  40    0.00017667022596473
 Sym= A
 Ene=              15
 Spin= Alpha
 Occup=    0.00000
   1    -0.013541175997754
   2     0.056282486633942
   3    4.1626702092852e-16
   4    0.00021611517670492
   5     0.027974375705441
   6    0.00057309865665716
   7    -0.0063084077242246
   8    -5.0799434930936e-17
   9    0.0015223217606779
  10    -0.0014961769907356
  11     -0.01302890703246
  12     0.055075022116981
  13    1.2486862918073e-17
  14    -0.027386219930456
  15    2.3393648422815e-05
  16       1.2392316342568
  17     -0.48654953938516
  18    9.910992288629e-17
  19    -0.0043957108333479
  20    -0.0003484797912268
  21    -0.014750221894545
  22     0.059834024758453
  23    1.9618078252588e-17
  24    0.00024520923833066
  25    -0.027449837457051
  26    0.00068595045838635
  27    -0.0068177892307298
  28    7.2914657391754e-17
  29    0.0016673644256534
  30    0.0014788971571208
  31    -0.00018136456142588
  32    0.0012660803030848
  33    -1.8387613535625e-17
  34    -0.00043795851992156
  35    -0.0001791969488256
  36    0.0037498105759884
  37    -0.010965362959934
  38    4.2635940228084e-17
  39    -6.383343337149e-05
  40    0.0039496111671058
 Sym= A
 Ene=              16
 Spin= Alpha
 Occup=    0.00000
   1     0.055706245525565
   2     -0.18842529841188
   3    -3.2274743874388e-16
   4    -0.0014002459733799
   5    -0.062436935986396
   6    -0.0061864492706684
   7     0.029869988786409
   8    1.9609060930662e-17
   9    -0.0067730257742133
  10    0.0068815914887114
  11     0.055075022116981
  12     -0.18719691807175
  13    -2.4843756596826e-17
  14     0.060756379384397
  15    -0.00013490372262404
  16     -0.48654953938516
  17       1.3531279659383
  18    2.3770278201571e-17
  19     0.012601728654402
  20    0.0010386633020006
  21     0.059834024758453
  22     -0.20011433930235
  23    -4.2733791920498e-17
  24    -0.001529595213811
  25     0.060843880250988
  26    -0.0068177892307299
  27     0.032159123168871
  28    -1.3883360773736e-17
  29    -0.0072854310316433
  30    -0.006703030044532
  31    0.0012476810058327
  32    -0.0057997294251145
  33    -2.2263597332269e-17
  34     0.001295612487878
  35    0.0013077791913894
  36    -0.010908917208366
  37     0.034133334883304
  38    1.8202994784242e-17
  39    0.00027204102063396
  40    -0.012002387531412
 Sym= A
 Ene=              17
 Spin= Alpha
 Occup=    0.00000
   1    -4.2932809523233e-17
   2    6.1498568078695e-17
   3    -0.00075579000054104
   4    1.5334818839601e-17
   5    -5.2129380207592e-17
   6    -2.0847186540152e-17
   7    -3.0728653552508e-17
   8    5.4798712550343e-07
   9    1.9279155815507e-17
  10    1.504047785711e-16
  11    7.6934419351047e-17
  12    -6.0875145929979e-17
  13    -0.00072471823493333
  14    1.0628943071142e-16
  15    1.0644683605408e-16
  16    9.910992288629e-17
  17    2.3770278201571e-17
  18       1.0000025993896
  19    -8.8984413365909e-17
  20    1.4507675029937e-16
  21    -1.0839328442186e-16
  22    7.5865354761608e-17
  23    -0.00079780859308586
  24    -3.487189713756e-17
  25    1.6975638739487e-17
  26    -2.9523285689199e-17
  27    3.399997475417e-17
  28    5.781849210893e-07
  29    -4.2802285370918e-17
  30    -1.525868041964e-17
  31    1.4553133118744e-17
  32    4.4410832115422e-18
  33    -6.5588859650668e-10
  34    -6.7838112120141e-18
  35    4.0508285668296e-17
  36    3.4790079083777e-17
  37    -1.5715227457628e-17
  38    9.0445795129089e-07
  39    1.5091924221601e-17
  40    1.785098505354e-16
 Sym= A
 Ene=              18
 Spin= Alpha
 Occup=    0.00000
   1    0.00021885894540047
   2    -0.001429251736545
   3    -3.0547398061931e-16
   4    -0.00093659247059584
   5    -0.00055069123440988
   6    -0.0015273970001904
   7    0.0068583704782691
   8    -5.7326723188789e-17
   9    -4.9686377522697e-05
  10    0.0037480997835114
  11      0.02738621993045
  12    -0.060756379384397
  13    1.6538892539185e-16
  14    0.0096552233329165
  15    -4.2381867510614e-05
  16    -0.0043957108333479
  17     0.012601728654402
  18    -8.8984413365909e-17
  19       1.0038326147229
  20    6.8449278989721e-06
  21    0.00024520923833022
  22    -0.0015295952138111
  23    -6.2397050799105e-17
  24    -0.0009960283083885
  25    0.00054387003873519
  26    -0.0016673644256583
  27    0.0072854310316432
  28    -1.8958907604014e-17
  29    -5.5091878530128e-05
  30    -0.0037019245765322
  31    0.00043870145322848
  32    -0.0013049949475018
  33    -3.8275043349912e-18
  34    1.2401659451309e-05
  35    0.00047440898157433
  36    -6.4125353182166e-05
  37    0.00027595922300481
  38    3.2679520399948e-17
  39    5.2360303313761e-05
  40    -6.8076523580241e-05
 Sym= A
 Ene=              19
 Spin= Alpha
 Occup=    0.00000
   1    -0.025794381037928
   2     0.056573141160723
   3    -7.2496954732871e-17
   4    0.00050656763651452
   5    0.0091098779555616
   6     0.001351285992277
   7    -0.0061502768574002
   8    -1.3107433332056e-16
   9     0.003483685098073
  10    -8.6800582994029e-06
  11    2.3393648422824e-05
  12    -0.00013490372262378
  13    -1.3728786911273e-16
  14    4.2381867530402e-05
  15    -0.0010610102481071
  16    -0.0003484797912268
  17    0.0010386633020006
  18    1.4507675029936e-16
  19    6.8449278989685e-06
  20       1.0075744320764
  21     0.027449837457053
  22    -0.060843880250987
  23    2.9336743451592e-17
  24    -0.00054387003874322
  25    0.0088730745997552
  26    -0.0014788971571223
  27    0.0067030300445326
  28    -1.5378004985742e-17
  29    -0.0037019245765253
  30    1.677242319664e-05
  31    0.00014968638116024
  32    -0.0011651881400907
  33    -3.0661170603187e-17
  34    0.00042460618473945
  35    0.00017667022595114
  36    -0.0035398386200462
  37     0.010900686596569
  38    -3.0151106371032e-17
  39    5.9472272656362e-05
  40    -0.0036636059551134
 Sym= A
 Ene=              20
 Spin= Alpha
 Occup=    0.00000
   1    0.0037498105759886
   2    -0.010965362959935
   3    -1.9553865401144e-16
   4    -6.3833433373476e-05
   5    -0.0039496111671069
   6    -0.00018136456142501
   7    0.0012660803030837
   8    4.4507090965218e-17
   9    -0.00043795851992642
  10    0.00017919694883296
  11    0.00068595045838483
  12    -0.0068177892307313
  13    -1.0202307931402e-17
  14    0.0016673644256513
  15    -0.001478897157121
  16    -0.014750221894545
  17     0.059834024758453
  18    -1.0839328442186e-16
  19    0.00024520923833021
  20     0.027449837457053
  21       1.2392316342568
  22     -0.48654953938516
  23    9.7734438385923e-18
  24    -0.0043957108333345
  25    0.00034847979122648
  26    -0.013028907032462
  27     0.055075022116982
  28    -5.3955818061968e-17
  29    -0.027386219930462
  30    -2.3393648423153e-05
  31    0.00057309865665206
  32    -0.0063084077242241
  33    -2.4585388401365e-18
  34    0.0015223217606766
  35     0.001496176990737
  36    -0.013541175997755
  37     0.056282486633943
  38    2.2132096551462e-17
  39    0.00021611517671349
  40    -0.027974375705445
 Sym= A
 Ene=              21
 Spin= Alpha
 Occup=    0.00000
   1    -0.010908917208366
   2     0.034133334883304
   3    1.6359238027624e-16
   4    0.00027204102063396
   5     0.012002387531412
   6    0.0012476810058322
   7    -0.0057997294251147
   8    -1.1689198038129e-16
   9    0.0012956124878775
  10    -0.0013077791913892
  11    -0.0068177892307307
  12      0.03215912316887
  13    -1.2711947754883e-16
  14    -0.007285431031643
  15     0.006703030044532
  16     0.059834024758453
  17     -0.20011433930235
  18    7.5865354761608e-17
  19    -0.0015295952138111
  20    -0.060843880250987
  21     -0.48654953938516
  22       1.3531279659383
  23    -5.4757568965908e-18
  24     0.012601728654403
  25    -0.0010386633020006
  26     0.055075022116982
  27     -0.18719691807175
  28    5.4165008763625e-17
  29     0.060756379384396
  30    0.00013490372262407
  31    -0.0061864492706682
  32     0.029869988786406
  33    1.1854465155368e-17
  34    -0.0067730257742135
  35    -0.0068815914887115
  36     0.055706245525564
  37     -0.18842529841188
  38    -1.8916894880755e-17
  39    -0.0014002459733791
  40     0.062436935986396
 Sym= A
 Ene=              22
 Spin= Alpha
 Occup=    0.00000
   1    1.1827345404601e-17
   2    5.0327212551225e-18
   3    9.0445796877783e-07
   4    2.5153891517077e-17
   5    1.9014998741491e-17
   6    -6.4792376941991e-17
   7    -1.0208997188684e-17
   8    -6.5587803301166e-10
   9    1.152433099184e-16
  10    -1.5807783759247e-16
  11    -1.4474926054432e-17
  12    1.4571391593337e-17
  13     5.78184948273e-07
  14    1.569708674066e-17
  15    -1.3246408906189e-16
  16    1.9618078252587e-17
  17    -4.2733791920498e-17
  18    -0.00079780859308588
  19    -6.2397050799102e-17
  20    2.9336743451592e-17
  21    9.7734438385921e-18
  22    -5.4757568965908e-18
  23       1.0000025993896
  24    -5.45116871901e-17
  25    2.4547206388527e-17
  26    1.6213471150607e-18
  27    1.4559730293811e-17
  28    -0.00072471823502161
  29    -1.1849884755246e-16
  30    -2.3195846509391e-17
  31    -4.1112763197927e-17
  32    2.4542968627684e-17
  33    5.4798715303229e-07
  34    1.1343392588799e-16
  35    1.1184492167739e-16
  36    3.8862849061003e-17
  37    4.9198337477801e-18
  38    -0.00075579000061482
  39    4.4924375378427e-17
  40    -6.2068200931651e-17
 Sym= A
 Ene=              23
 Spin= Alpha
 Occup=    0.00000
   1    -6.4125353184138e-05
   2    0.00027595922300474