[Molden Format]
made by pyscf v[2.3.0]
[Atoms] (AU)
He   1   2     0.00000000000000     0.00000000000000   -11.21374820673655
He   2   2     0.00000000000000     0.00000000000000    -8.00729871309704
He   3   2     0.00000000000000     0.00000000000000    -4.80294681545581
He   4   2     0.00000000000000     0.00000000000000    -1.60097597273152
He   5   2     0.00000000000000     0.00000000000000     1.60097597273152
He   6   2     0.00000000000000     0.00000000000000     4.80294681545581
He   7   2     0.00000000000000     0.00000000000000     8.00729871309704
He   8   2     0.00000000000000     0.00000000000000    11.21374820673655
[GTO]
1 0
 s    3 1.00
                 38.36   0.040176075383249
                  5.77    0.26136807476949
                  1.24    0.79307123949544
 s    1 1.00
                0.2976                   1
 p    1 1.00
                 1.275                   1

2 0
 s    3 1.00
                 38.36   0.040176075383249
                  5.77    0.26136807476949
                  1.24    0.79307123949544
 s    1 1.00
                0.2976                   1
 p    1 1.00
                 1.275                   1

3 0
 s    3 1.00
                 38.36   0.040176075383249
                  5.77    0.26136807476949
                  1.24    0.79307123949544
 s    1 1.00
                0.2976                   1
 p    1 1.00
                 1.275                   1

4 0
 s    3 1.00
                 38.36   0.040176075383249
                  5.77    0.26136807476949
                  1.24    0.79307123949544
 s    1 1.00
                0.2976                   1
 p    1 1.00
                 1.275                   1

5 0
 s    3 1.00
                 38.36   0.040176075383249
                  5.77    0.26136807476949
                  1.24    0.79307123949544
 s    1 1.00
                0.2976                   1
 p    1 1.00
                 1.275                   1

6 0
 s    3 1.00
                 38.36   0.040176075383249
                  5.77    0.26136807476949
                  1.24    0.79307123949544
 s    1 1.00
                0.2976                   1
 p    1 1.00
                 1.275                   1

7 0
 s    3 1.00
                 38.36   0.040176075383249
                  5.77    0.26136807476949
                  1.24    0.79307123949544
 s    1 1.00
                0.2976                   1
 p    1 1.00
                 1.275                   1

8 0
 s    3 1.00
                 38.36   0.040176075383249
                  5.77    0.26136807476949
                  1.24    0.79307123949544
 s    1 1.00
                0.2976                   1
 p    1 1.00
                 1.275                   1

[5d]
[7f]
[9g]

[MO]
 Sym= A
 Ene=               0
 Spin= Alpha
 Occup=    1.00000
   1       1.2243445316823
   2     -0.45108581430298
   3    -3.902181693233e-18
   4    7.919646256044e-17
   5    -0.0042187526201711
   6    -0.013011245228614
   7      0.05274152352043
   8    4.2267263639035e-17
   9    1.998967443912e-17
  10    -0.024647443553689
  11    0.0035415302730052
  12    -0.010116600921035
  13    8.9627540010317e-17
  14    2.537681413691e-17
  15    0.0032863274956533
  16    -0.00078918031362715
  17    0.0021316837074268
  18    -3.9626212300149e-17
  19    -2.0338286185485e-17
  20    -0.00065406159498762
  21    0.00017403370575269
  22    -0.00046044629653815
  23    -7.5414279563412e-18
  24    3.8057943926149e-18
  25    0.00013913701085455
  26    -3.8702007389237e-05
  27    0.00010099279477078
  28    1.0673649722143e-19
  29    -4.4832575699388e-19
  30    -3.0277303742955e-05
  31    8.6434437043729e-06
  32    -2.2301507035053e-05
  33    6.3433578302983e-20
  34    4.3113006274893e-19
  35    6.6857002890987e-06
  36    -1.7950246855064e-06
  37    4.6421153839507e-06
  38    -1.2160507098356e-19
  39    3.4810593319134e-19
  40    -1.5634259300822e-06
 Sym= A
 Ene=               1
 Spin= Alpha
 Occup=    1.00000
   1     -0.45108581430298
   2       1.2589720212246
   3    2.5315667681657e-19
   4    -1.5875819052838e-16
   5     0.011986439154906
   6     0.053235597712671
   7     -0.17676785043798
   8    -9.6087816148451e-17
   9    -3.697728363918e-17
  10     0.053765415308552
  11     -0.01021622129047
  12     0.031194062280916
  13    -7.6001665686365e-17
  14    2.5444647788918e-18
  15    -0.010007472201242
  16    0.0021499852132752
  17    -0.0061214509629538
  18    2.5501152526155e-17
  19    2.9405766165314e-17
  20    0.0019205807282105
  21    -0.00046435897725255
  22    0.0012684097037639
  23    -5.3990759509751e-18
  24    -2.0209285378288e-19
  25    -0.00038997202232466
  26    0.00010185481489809
  27    -0.00027122410205872
  28    2.4964461671043e-18
  29    -1.0913848001962e-18
  30    8.228560139017e-05
  31    -2.2516131676239e-05
  32    5.8898831068498e-05
  33    1.5018154118487e-18
  34    -6.3852522112395e-19
  35    -1.7803360705522e-05
  36    4.6421153839217e-06
  37    -1.212703359232e-05
  38    -5.2763951019305e-19
  39    -4.6572531255366e-19
  40    4.1018670070452e-06
 Sym= A
 Ene=               2
 Spin= Alpha
 Occup=    1.00000
   1    -3.9021816932329e-18
   2    2.5315667681657e-19
   3       1.0000007603346
   4    3.0659780153739e-15
   5    -1.373124591814e-16
   6    -2.5885319138422e-16
   7    1.8229193564125e-16
   8    -0.00071196267143835
   9    -1.510016120677e-15
  10    -7.6255644040368e-17
  11    -1.5308906701194e-17
  12    1.2975551167375e-17
  13    7.6687981902273e-07
  14    -4.0526821772407e-15
  15    -2.8192000503813e-17
  16    -1.6432480744117e-16
  17    5.5416988689831e-17
  18    -9.2679376153864e-10
  19    5.9156262436801e-15
  20    -1.2209772874871e-16
  21    1.1396946264139e-16
  22    -1.2525122757958e-16
  23    1.1781152535139e-12
  24    3.1408051425451e-15
  25    -2.0278028062814e-16
  26    3.4417825994497e-16
  27    -1.5717332258982e-16
  28    9.7009371715862e-15
  29    -7.4704157572057e-16
  30    -8.1784389447402e-17
  31    -1.054295832312e-16
  32    5.1783015484725e-17
  33    4.5401923543612e-15
  34    -2.82916919902e-15
  35    -1.5630993899797e-17
  36    9.1475283832272e-17
  37    -4.4832452310366e-17
  38    -1.4466140149726e-15
  39    9.8714046545634e-15
  40    5.2500704821096e-18
 Sym= A
 Ene=               3
 Spin= Alpha
 Occup=    1.00000
   1    7.919646256044e-17
   2    -1.5875819052838e-16
   3    3.0520927992873e-15
   4       1.0000007603347
   5    1.7612046489496e-16
   6    -3.1021416640197e-16
   7    2.0300111506779e-16
   8    -5.3057733756589e-16
   9    -0.00071196267143533
  10    5.7327588758877e-17
  11    7.4807449468891e-17
  12    -1.918746116888e-16
  13    -5.3319827101089e-16
  14    7.6687982199564e-07
  15    2.9276056635847e-17
  16    -1.6929091510117e-18
  17    1.4017649465791e-17
  18    4.9658254632412e-15
  19    -9.2678934316525e-10
  20    -1.4991556207865e-17
  21    2.9369376227305e-16
  22    -1.7817130013448e-16
  23    -1.6367706804844e-15
  24    1.1791806424207e-12
  25    -1.0122873660448e-17
  26    -2.5213171026228e-16
  27    2.254329551981e-16
  28    -8.4446456053939e-15
  29    -2.6530727428516e-16
  30    1.3647519650075e-16
  31    -1.6353316253025e-16
  32    -1.8891994382436e-16
  33    -1.7577990327149e-15
  34    -2.7176370081795e-15
  35    -7.4633327090385e-17
  36    -2.7380672078485e-16
  37    -5.3782184644964e-18
  38    -2.9737231786447e-16
  39    -4.2130952960403e-15
  40    -3.827828232435e-17
 Sym= A
 Ene=               4
 Spin= Alpha
 Occup=    1.00000
   1    -0.0042187526201711
   2     0.011986439154906
   3    -1.3731245918139e-16
   4    1.7612046489496e-16
   5       1.0037550283806
   6      0.02660070243184
   7    -0.058966562289549
   8    -1.1756171534991e-16
   9    -1.6131463207414e-17
  10    0.0086807799414684
  11     -0.00370118685088
  12     0.011072525158605
  13    6.3050407828136e-17
  14    2.5863306159041e-17
  15    -0.0033732194463089
  16    0.00074232302850534
  17    -0.0021434281784683
  18    4.1338672592403e-17
  19    -7.8595818635204e-18
  20    0.00067388013880097
  21    -0.00015851810044535
  22    0.00043805053026269
  23    -4.1891868901577e-17
  24    -2.148417690319e-17
  25    -0.00013545437081439
  26    3.4562466675579e-05
  27    -9.2774345850614e-05
  28    6.084741005645e-17
  29    -4.9186379373369e-18
  30    2.8275918513952e-05
  31    -7.6071639103354e-06
  32    2.0012382416043e-05
  33    -5.9676276657749e-17
  34    -1.3478154586038e-17
  35    -6.0695388142012e-06
  36    1.5634259306411e-06
  37    -4.1018670072165e-06
  38    -5.1120963469182e-17
  39    -2.4719824360777e-17
  40    1.3899372573264e-06
 Sym= A
 Ene=               5
 Spin= Alpha
 Occup=    1.00000
   1    -0.013011245228614
   2     0.053235597712671
   3    -2.5885319138422e-16
   4    -3.1021416640197e-16
   5      0.02660070243184
   6       1.2315552131541
   7     -0.46810766034069
   8    4.9306027399743e-17
   9    9.8752017264989e-18
  10    -0.00023712747124545
  11    -0.014351960932747
  12     0.056455956254507
  13    3.033960564794e-17
  14    -1.1740912424492e-16
  15    -0.025794215747249
  16    0.0038380425983196
  17    -0.010922910481666
  18    -1.9301566830656e-17
  19    2.6742237452545e-17
  20     0.003534737474773
  21    -0.00085564609245704
  22    0.0023066045190018
  23    1.8821097390547e-17
  24    1.2034926802918e-17
  25    -0.00070682816478835
  26    0.00018881921985289
  27    -0.00049882325627723
  28    -3.7585602159698e-17
  29    -1.0692921827977e-17
  30    0.00015073208981665
  31    -4.1854727330939e-05
  32    0.00010899093444029
  33    -2.2854036622504e-17
  34    3.2953530551126e-17
  35    -3.2861719327722e-05
  36    8.6434437038954e-06
  37    -2.2516131675523e-05
  38    -1.6904236581641e-17
  39    -2.8401148798032e-17
  40    7.607163909427e-06
 Sym= A
 Ene=               6
 Spin= Alpha
 Occup=    1.00000
   1      0.05274152352043
   2     -0.17676785043798
   3    1.8229193564125e-16
   4    2.0300111506779e-16
   5    -0.058966562289549
   6     -0.46810766034069
   7       1.3034604681762
   8    7.6283514500714e-17
   9    7.6867609256085e-17
  10    0.00065906440996928
  11     0.056458146560954
  12     -0.18604902036464
  13    -7.6048962755809e-17
  14    3.6734082139121e-17
  15     0.056638480094129
  16    -0.010910377340464
  17     0.033147107935214
  18    3.6229008517467e-17
  19    -3.8056333542563e-17
  20    -0.010619437828191
  21    0.0023038687736896
  22    -0.0065344354158498
  23    6.0523531741968e-17
  24    5.9676064989051e-18
  25    0.0020465888223246
  26    -0.00049826592396224
  27    0.0013575372519818
  28    -3.018199445472e-17
  29    1.3761016328294e-17
  30    -0.0004171456548216
  31    0.00010899093444015
  32    -0.00028943899158712
  33    -1.7060177683716e-17
  34    7.9603872030953e-18
  35    8.8257388833038e-05
  36    -2.2301507034001e-05
  37    5.8898831068635e-05
  38    7.4212672281267e-18
  39    7.2127916130567e-18
  40    -2.0012382416015e-05
 Sym= A
 Ene=               7
 Spin= Alpha
 Occup=    1.00000
   1    4.2267263639035e-17
   2    -9.6087816148451e-17
   3    -0.00071196267143833
   4    -5.274977184243e-16
   5    -1.1756171534991e-16
   6    4.9306027399744e-17
   7    7.6283514500714e-17
   8        1.000001533819
   9    2.6692608691368e-16
  10     -4.2286790057e-20
  11    -1.3221208443616e-16
  12    8.0594153736643e-17
  13    -0.00071809324781116
  14    -2.6969336219396e-15
  15    1.9179963183175e-17
  16    -5.1985552444473e-17
  17    1.3988256537563e-16
  18    7.8104168719392e-07
  19    -1.6716983954727e-15
  20    7.0392691686534e-17
  21    -2.6445399755703e-16
  22    9.4094083066621e-17
  23    -9.4397432560796e-10
  24    -8.6076000593094e-17
  25    1.6058833642632e-17
  26    -6.8498928739763e-17
  27     2.94889169846e-17
  28    1.1957770046608e-12
  29    -8.5845958935165e-16
  30    -5.1775951148564e-17
  31    1.4280291084996e-16
  32    -1.4441380232961e-16
  33    -9.4820092976992e-17
  34    -4.1492270257917e-15
  35    1.8368302345289e-16
  36    1.3908862323676e-16
  37    -1.9771026648238e-17
  38    3.463432891117e-15
  39    -1.9579117265673e-15
  40    4.1265084986338e-17
 Sym= A
 Ene=               8
 Spin= Alpha
 Occup=    0.00000
   1    1.998967443912e-17
   2    -3.697728363918e-17
   3    -1.5116755752012e-15
   4    -0.00071196267143548
   5    -1.6131463207393e-17
   6    9.875201726495e-18
   7    7.6867609256085e-17
   8     2.70029229844e-16
   9        1.000001533819
  10    -5.0335043378546e-17
  11    -3.3108159740406e-17
  12    -6.738837071782e-17
  13    -4.029326220977e-16
  14    -0.00071809324781277
  15    -6.1983355028266e-17
  16    -1.5445465635333e-16
  17    1.6734739631878e-16
  18    2.9331258668336e-15
  19    7.8104168634371e-07
  20    -4.2320575039008e-17
  21    -9.3918016413881e-17
  22    1.021365658688e-16
  23    3.3386500402628e-15
  24    -9.4397089308074e-10
  25    1.8873961942962e-17
  26    -3.4667077077014e-17
  27    9.2313118992259e-17
  28    -1.6763778084375e-15
  29    1.2014065609991e-12
  30    1.6869933519039e-16
  31    -3.8047949145182e-17
  32    -1.4959644725992e-16
  33    -1.2297383299067e-15
  34    -3.0560233650146e-15
  35    -5.153945974418e-17
  36    3.8938060010582e-17
  37    -1.0401953724441e-16
  38    2.8048272521239e-15
  39    1.6810655310563e-15
  40    -8.4359955464413e-18
 Sym= A
 Ene=               9
 Spin= Alpha
 Occup=    0.00000
   1    -0.024647443553689
   2     0.053765415308552
   3    -7.625564404037e-17
   4    5.7327588758879e-17
   5    0.0086807799414685
   6    -0.00023712747124545
   7    0.00065906440996928
   8    -4.2286790058751e-20
   9    -5.0335043378539e-17
  10        1.006994595037
  11     0.025905480798347
  12    -0.056940474591394
  13    3.9843937735633e-18
  14    -1.154721585755e-17
  15    0.0080557136158857
  16    -0.0035529986228432
  17     0.010676404497291
  18    -8.2542492457237e-17
  19    4.7654319479109e-17
  20    -0.0032536716599975
  21    0.00071069573380817
  22    -0.0020588040417721
  23    -6.8292185106406e-17
  24    4.4920282466967e-17
  25    0.00064824092687105
  26    -0.00015148317160374
  27    0.00041951231493159
  28    -1.166086141351e-18
  29    -6.1857383233207e-19
  30    -0.0001299793952425
  31    3.2861719328394e-05
  32    -8.8257388832602e-05
  33    1.1564090150352e-17
  34    8.138235469079e-18
  35    2.7082635596624e-05
  36    -6.6857002891809e-06
  37    1.7803360706142e-05
  38    6.0892261951356e-18
  39    9.9001903014319e-18
  40    -6.0695388141724e-06
 Sym= A
 Ene=              10
 Spin= Alpha
 Occup=    0.00000
   1    0.0035415302730052
   2     -0.01021622129047
   3    -1.5308906701196e-17
   4    7.4807449468891e-17
   5    -0.0037011868508799
   6    -0.014351960932746
   7     0.056458146560954
   8    -1.3221208443616e-16
   9    -3.3108159740409e-17
  10     0.025905480798347
  11       1.2318681917291
  12     -0.46892946026166
  13    -1.0318610492179e-16
  14    1.0305383761152e-16
  15    -3.1587004621136e-05
  16    -0.014381133774607
  17     0.056669825253849
  18    -3.3287242404449e-17
  19    8.9938758315994e-17
  20    -0.025908052230529
  21    0.0038538152324335
  22    -0.010965517045868
  23    5.7678596156157e-17
  24    -4.829379034543e-17
  25    0.0035488132083417
  26    -0.00085903949996124
  27    0.0023152017948459
  28    -6.700002890935e-17
  29    -3.5734220642106e-17
  30    -0.00071000312242284
  31    0.00018881921985317
  32    -0.00049826592395988
  33    -4.756521872174e-17
  34    2.6618824197581e-17
  35    0.00015148317160283
  36    -3.870200738867e-05
  37    0.00010185481490161
  38    3.9604117112711e-17
  39    2.8736174091559e-17
  40    -3.4562466674631e-05
 Sym= A
 Ene=              11
 Spin= Alpha
 Occup=    0.00000
   1    -0.010116600921036
   2     0.031194062280916
   3    1.2975551167375e-17
   4    -1.918746116888e-16
   5     0.011072525158605
   6     0.056455956254507
   7     -0.18604902036464
   8    8.0594153736643e-17
   9    -6.738837071782e-17
  10    -0.056940474591394
  11     -0.46892946026166
  12       1.3057301647561
  13    7.1057730308969e-17
  14    -5.9322262811025e-17
  15    9.7629324974969e-05
  16     0.056669628416588
  17     -0.18687742756913
  18    -1.9393929054531e-18
  19    -8.1472398880471e-17
  20     0.056945939981247
  21    -0.010965347410728
  22     0.033303732695406
  23    1.2529565180527e-17
  24    -4.0385667241817e-18
  25    -0.010669919946256
  26    0.0023152017948458
  27    -0.0065647646181254
  28    3.9745214958744e-17
  29    3.191055380502e-17
  30    0.0020574773279638
  31    -0.00049882325627487
  32    0.0013575372519834
  33    -1.4839686354057e-17
  34    8.2948799018087e-18
  35    -0.00041951231493121
  36    0.00010099279477401
  37    -0.00027122410205782
  38    -5.2119660068981e-17
  39    -5.4039616580716e-17
  40    9.2774345850243e-05
 Sym= A
 Ene=              12
 Spin= Alpha
 Occup=    0.00000
   1    8.9627540010317e-17
   2    -7.6001665686365e-17
   3    7.6687981906915e-07
   4    -5.3707241966155e-16
   5    6.3050407828131e-17
   6    3.0339605647944e-17
   7    -7.6048962755809e-17
   8    -0.00071809324781117
   9    -4.1956395493323e-16
  10    3.9843937735645e-18
  11    -1.0318610492179e-16
  12    7.1057730308969e-17
  13       1.0000015621592
  14    8.1737272931306e-16
  15    -3.4129646010263e-18
  16    8.0869444090232e-17
  17    -1.2727181953717e-16
  18    -0.00072511029994838
  19    -1.9164117539463e-15
  20    -3.6773302071023e-18
  21    -3.3453547538084e-17
  22    -2.5021305677607e-17
  23    7.8873468777553e-07
  24    5.1178164603277e-16
  25    -1.2492086316167e-16
  26    -3.0125372040826e-18
  27    6.6938143138158e-17
  28    -9.5319939656354e-10
  29    9.2283002268093e-16
  30    -8.0281841365519e-17
  31    -5.5565282072212e-17
  32    -1.6264866374345e-17
  33    1.1933543256396e-12
  34    -3.7551203315812e-16
  35    -3.2653074555578e-17
  36    -5.4042303623679e-17
  37    4.2204668694862e-17
  38    -2.0485484481489e-15
  39    -3.1892021379951e-16
  40    -1.0488110996262e-17
 Sym= A
 Ene=              13
 Spin= Alpha
 Occup=    0.00000
   1    2.5376814136911e-17
   2    2.5444647788918e-18
   3    -4.0504914403431e-15
   4    7.6687982196412e-07
   5    2.5863306159036e-17
   6    -1.1740912424491e-16
   7    3.6734082139122e-17
   8    -2.7254655664984e-15
   9    -0.00071809324781283
  10    -1.154721585755e-17
  11    1.0305383761152e-16
  12    -5.9322262811025e-17
  13    8.0977213020628e-16
  14       1.0000015621592
  15    1.1075768909411e-16
  16    -4.5038861564698e-17
  17    7.6001448381365e-17
  18     1.48375219633e-15
  19    -0.00072511029995152
  20    7.423173532563e-17
  21    -1.3432536425603e-16
  22    1.9835452195862e-16
  23    -1.3908945652504e-15
  24    7.887346897022e-07
  25    5.4376466656187e-17
  26    -2.1918683234224e-17
  27    -1.4161443814044e-16
  28    -7.2272575707323e-16
  29    -9.5318960218434e-10
  30    -9.3752965351186e-17
  31    -2.043898829237e-17
  32    4.687896348933e-17
  33    2.4387113629862e-15
  34    1.1963874275022e-12
  35    8.2377194022039e-17
  36    -2.4695939816074e-17
  37    2.2690059208173e-16
  38    5.6237336572333e-15
  39    -4.4510325574133e-15
  40    3.4055398960498e-17
 Sym= A
 Ene=              14
 Spin= Alpha
 Occup=    0.00000
   1    0.0032863274956533
   2    -0.010007472201242
   3    -2.8192000503814e-17
   4    2.9276056635844e-17
   5    -0.0033732194463089
   6    -0.025794215747249
   7     0.056638480094129
   8    1.9179963183181e-17
   9    -6.1983355028256e-17
  10    0.0080557136158856
  11    -3.1587004621139e-05
  12    9.7629324974968e-05
  13    -3.4129646010241e-18
  14    1.107576890941e-16
  15       1.0072075861665
  16     0.025921648726756
  17    -0.056984547695708
  18    3.5488879287031e-17
  19    -1.8761619220837e-18
  20     0.008090042327065
  21    -0.0035515697608587
  22     0.010677518352496
  23    3.8649026687221e-17
  24    -7.8743213353035e-18
  25    -0.0032548431275993
  26    0.00071000312242401
  27    -0.0020574773279629
  28    -1.3329704637862e-17
  29    4.549064952051e-17
  30    0.00064842692033979
  31    -0.00015073208981732
  32    0.00041714565482223
  33    4.3786756351079e-17
  34    3.3722274414401e-17
  35    -0.00012997939523904
  36    3.0277303742483e-05
  37    -8.228560138964e-05
  38    -2.2841609098078e-17
  39    -7.8105470101703e-17
  40    2.827591850828e-05
 Sym= A
 Ene=              15
 Spin= Alpha
 Occup=    0.00000
   1    -0.00078918031362719
   2    0.0021499852132752
   3    -1.6432480744117e-16
   4    -1.6929091510113e-18
   5    0.00074232302850535
   6    0.0038380425983196
   7    -0.010910377340464
   8    -5.1985552444474e-17
   9    -1.5445465635333e-16
  10    -0.0035529986228432
  11    -0.014381133774607
  12     0.056669628416588
  13    8.0869444090232e-17
  14    -4.5038861564698e-17
  15     0.025921648726756
  16       1.2319048212766
  17     -0.46902817382738
  18    5.8488878600031e-17
  19    8.3005158118233e-17
  20    -1.5504005001565e-06
  21    -0.014388356949321
  22     0.056690175014542
  23    2.9170762096365e-17
  24    -2.1638211715797e-18
  25    -0.025915307174454
  26    0.0038538152324343
  27    -0.010965347410725
  28    3.8829401845471e-17
  29    -2.2299517939913e-17
  30    0.0035515697608575
  31    -0.0008556460924556
  32    0.0023038687736958
  33    3.8609954037376e-18
  34    -2.5168145129038e-17
  35    -0.0007106957338085
  36    0.0001740337057512
  37    -0.00046435897725162
  38    1.059109617725e-17
  39    2.0937954159482e-17
  40    0.00015851810044563
 Sym= A
 Ene=              16
 Spin= Alpha
 Occup=    0.00000
   1    0.0021316837074268
   2    -0.0061214509629538
   3    5.5416988689831e-17
   4    1.4017649465791e-17
   5    -0.0021434281784683
   6    -0.010922910481666
   7     0.033147107935214
   8    1.3988256537563e-16
   9    1.6734739631878e-16
  10     0.010676404497291
  11     0.056669825253849
  12     -0.18687742756913
  13    -1.2727181953717e-16
  14    7.6001448381366e-17
  15    -0.056984547695708
  16     -0.46902817382738
  17       1.3060249704106
  18    -6.3148256569697e-17
  19    -7.4135730496307e-17
  20    4.3210143535947e-06
  21     0.056690175014543
  22     -0.18693665250565
  23    8.7508094785617e-18
  24    5.5323216946061e-18
  25     0.056966606400579
  26    -0.010965517045865
  27     0.033303732695409
  28    -2.522363505532e-17
  29    -1.7013819008215e-17
  30    -0.010677518352495
  31    0.0023066045190073
  32    -0.0065344354158472
  33    -1.0310629233862e-17
  34    1.2250903963422e-17
  35    0.0020588040417718
  36    -0.00046044629653723
  37     0.001268409703764
  38     8.30905791285e-17
  39    1.0141631779534e-17
  40    -0.00043805053026351
 Sym= A
 Ene=              17
 Spin= Alpha
 Occup=    0.00000
   1    -3.9626212300149e-17
   2    2.5501152526155e-17
   3    -9.2679375698281e-10
   4    4.9697951916021e-15
   5    4.1338672592406e-17
   6    -1.9301566830657e-17
   7    3.6229008517467e-17
   8    7.8104168724929e-07
   9    2.9486280383077e-15
  10    -8.2542492457237e-17
  11    -3.3287242404449e-17
  12    -1.9393929054531e-18
  13    -0.00072511029994835
  14    1.4905419926062e-15
  15    3.5488879287024e-17
  16    5.848887860003e-17
  17    -6.3148256569697e-17
  18       1.0000015774714
  19    -3.5949076796409e-16
  20    -1.6626441855971e-16
  21    1.343412723606e-16
  22    -6.2066017889194e-17
  23    -0.00072516626133499
  24    2.6958875314776e-15
  25    8.3419764508436e-19
  26    9.0604813146322e-17
  27    -1.6346677916099e-16
  28    7.8873469185735e-07
  29    4.5017621118096e-15
  30    5.1819165243837e-17
  31    8.553294743778e-17
  32    -5.9667831012161e-17
  33    -9.4397748141338e-10
  34    -1.0257316588346e-15
  35    -6.6606972025629e-17
  36    -1.5062215568728e-17
  37    6.6543553297256e-17
  38    1.1764729624408e-12
  39    3.3707633165557e-15
  40    -1.2884396058729e-16
 Sym= A
 Ene=              18
 Spin= Alpha
 Occup=    0.00000
   1    -2.0338286185484e-17
   2    2.9405766165314e-17
   3    5.9068173012391e-15
   4    -9.2678932430732e-10
   5    -7.8595818635192e-18
   6    2.674223745255e-17
   7    -3.8056333542563e-17
   8    -1.6497422710013e-15
   9    7.8104168630628e-07
  10    4.7654319479106e-17
  11    8.9938758315992e-17
  12    -8.1472398880471e-17
  13    -1.9220176833664e-15
  14    -0.00072511029995148
  15    -1.8761619220857e-18
  16    8.3005158118231e-17
  17    -7.4135730496306e-17
  18    -3.512498805129e-16
  19       1.0000015774714
  20    -3.0848148986624e-17
  21    -4.0919878721671e-17
  22    2.4336301512565e-17
  23    -5.889141932853e-15
  24    -0.00072516626133884
  25    1.9109051485874e-17
  26    -7.5257323455424e-17
  27    8.3732468613374e-17
  28    7.050602125046e-16
  29    7.8873469071037e-07
  30    5.2796887494437e-18
  31    1.0877653681081e-17
  32    8.5837047439526e-18
  33    5.4768923736795e-15
  34    -9.4397167207203e-10
  35    -7.0827330614776e-18
  36    3.3524631364292e-17
  37    -1.3094094933059e-16
  38    -2.7423371422466e-15
  39    1.1722514731099e-12
  40    1.6142604717822e-17
 Sym= A
 Ene=              19
 Spin= Alpha
 Occup=    0.00000
   1    -0.00065406159498761
   2    0.0019205807282105
   3    -1.2209772874871e-16
   4    -1.4991556207869e-17
   5    0.00067388013880097
   6     0.003534737474773
   7    -0.010619437828191
   8    7.0392691686526e-17
   9    -4.2320575039011e-17
  10    -0.0032536716599975
  11    -0.025908052230529
  12     0.056945939981247
  13    -3.6773302070994e-18
  14    7.4231735325635e-17
  15     0.008090042327065
  16    -1.5504005001582e-06
  17    4.3210143535895e-06
  18    -1.6626441855971e-16
  19    -3.0848148986623e-17
  20       1.0072377974282
  21     0.025915307174455
  22    -0.056966606400578
  23    7.486800562678e-17
  24    -9.1951486164618e-17
  25    0.0080851381516435
  26    -0.0035488132083428
  27     0.010669919946257
  28    -7.0935592702474e-18
  29    1.0811377818142e-17
  30    -0.0032548431275941
  31    0.00070682816478776
  32    -0.0020465888223246
  33    -3.7421657489218e-17
  34    -1.4715018454486e-17
  35    0.00064824092686341
  36    -0.00013913701085324
  37    0.00038997202232436
  38    -8.1865495929842e-18
  39    2.7374306712827e-17
  40    -0.00013545437080893
 Sym= A
 Ene=              20
 Spin= Alpha
 Occup=    0.00000
   1    0.00017403370575271
   2    -0.00046435897725255
   3    1.1396946264139e-16
   4    2.9369376227305e-16
   5    -0.00015851810044535
   6    -0.00085564609245705
   7    0.0023038687736896
   8    -2.6445399755703e-16
   9    -9.3918016413879e-17
  10    0.00071069573380815
  11    0.0038538152324335
  12    -0.010965347410728
  13    -3.3453547538083e-17
  14    -1.3432536425604e-16
  15    -0.0035515697608587
  16    -0.014388356949321
  17     0.056690175014543
  18    1.343412723606e-16
  19    -4.0919878721672e-17
  20     0.025915307174455
  21       1.2319048212766
  22     -0.46902817382738
  23    6.0731358552443e-19
  24    2.1347038968726e-17
  25    1.5504004991886e-06
  26    -0.014381133774606
  27     0.056669628416592
  28    -4.4147254364174e-19
  29    -1.3015759974274e-17
  30    -0.025921648726758
  31    0.0038380425983166
  32    -0.010910377340462
  33    6.0012070798511e-18
  34    -4.226893295956e-17
  35    0.0035529986228448
  36    -0.00078918031362535
  37    0.0021499852132772
  38    3.6240454614543e-17
  39    2.3208542695388e-17
  40    -0.0007423230285062
 Sym= A
 Ene=              21
 Spin= Alpha
 Occup=    0.00000
   1    -0.00046044629653818
   2    0.0012684097037639
   3    -1.2525122757958e-16
   4    -1.7817130013448e-16
   5    0.00043805053026269
   6    0.0023066045190018
   7    -0.0065344354158498
   8    9.4094083066621e-17
   9    1.021365658688e-16
  10    -0.0020588040417721
  11    -0.010965517045868
  12     0.033303732695406
  13    -2.5021305677607e-17
  14    1.9835452195862e-16
  15     0.010677518352496
  16     0.056690175014542
  17     -0.18693665250565
  18    -6.2066017889194e-17
  19    2.4336301512565e-17
  20    -0.056966606400578
  21     -0.46902817382738
  22       1.3060249704106
  23    -2.1117537812506e-17
  24    -2.0987204372008e-17
  25    -4.3210143531269e-06
  26     0.056669825253853
  27     -0.18687742756912
  28    -4.72050326568e-18
  29    1.2871029862171e-17
  30     0.056984547695707
  31    -0.010922910481665
  32     0.033147107935212
  33    2.1276616977634e-17
  34    2.4131587903268e-17
  35    -0.010676404497291
  36    0.0021316837074286
  37    -0.0061214509629521
  38    -3.974372296064e-17
  39    1.9197613564858e-17
  40    0.0021434281784682
 Sym= A
 Ene=              22
 Spin= Alpha
 Occup=    0.00000
   1    -7.5414279563412e-18
   2    -5.3990759509751e-18
   3    1.1780690300221e-12
   4    -1.6274544397752e-15
   5    -4.189186890157e-17
   6    1.8821097390546e-17
   7    6.0523531741968e-17
   8    -9.4397428898215e-10
   9    3.3353415224361e-15
  10    -6.8292185106405e-17
  11    5.7678596156156e-17
  12    1.2529565180527e-17
  13    7.8873468779077e-07
  14    -1.3715902720687e-15
  15    3.864902668722e-17
  16    2.9170762096364e-17
  17    8.7508094785617e-18
  18    -0.00072516626133501
  19    -5.8874154591324e-15
  20    7.486800562678e-17
  21    6.0731358552504e-19
  22    -2.1117537812506e-17
  23       1.0000015774714
  24    3.1561858748219e-16
  25    -1.295575457526e-16
  26    2.2025207923025e-17
  27    -3.8685958544405e-17
  28    -0.00072511029995833
  29    3.8271161503807e-15
  30    -4.1968193506298e-17
  31    -1.3968933284608e-17
  32    -3.3923125367431e-17
  33    7.8104169067364e-07
  34    -1.4586750170498e-15
  35    -5.2890993512685e-18
  36    -1.0893216094957e-17
  37    -2.2004589686299e-17
  38    -9.267738530967e-10