[Molden Format]
made by pyscf v[2.3.0]
[Atoms] (AU)
He   1   2     0.00000000000000     0.00000000000000    -0.73544361315823
He   2   2     0.00000000000000     0.00000000000000    -4.62869516950966
He   3   2     2.35127283322883     1.70829351934557     1.07281641817683
He   4   2     2.35127283322883    -1.70829351934557     1.07281641817683
He   5   2    -0.89811123796079     2.76408350514007     1.07281641817683
He   6   2    -0.89811123796079    -2.76408350514007     1.07281641817683
He   7   2    -2.90632319053608     0.00000000000000     1.07281641817683
[GTO]
1 0
 s    3 1.00
                 38.36   0.040176075383249
                  5.77    0.26136807476949
                  1.24    0.79307123949544
 s    1 1.00
                0.2976                   1
 p    1 1.00
                 1.275                   1

2 0
 s    3 1.00
                 38.36   0.040176075383249
                  5.77    0.26136807476949
                  1.24    0.79307123949544
 s    1 1.00
                0.2976                   1
 p    1 1.00
                 1.275                   1

3 0
 s    3 1.00
                 38.36   0.040176075383249
                  5.77    0.26136807476949
                  1.24    0.79307123949544
 s    1 1.00
                0.2976                   1
 p    1 1.00
                 1.275                   1

4 0
 s    3 1.00
                 38.36   0.040176075383249
                  5.77    0.26136807476949
                  1.24    0.79307123949544
 s    1 1.00
                0.2976                   1
 p    1 1.00
                 1.275                   1

5 0
 s    3 1.00
                 38.36   0.040176075383249
                  5.77    0.26136807476949
                  1.24    0.79307123949544
 s    1 1.00
                0.2976                   1
 p    1 1.00
                 1.275                   1

6 0
 s    3 1.00
                 38.36   0.040176075383249
                  5.77    0.26136807476949
                  1.24    0.79307123949544
 s    1 1.00
                0.2976                   1
 p    1 1.00
                 1.275                   1

7 0
 s    3 1.00
                 38.36   0.040176075383249
                  5.77    0.26136807476949
                  1.24    0.79307123949544
 s    1 1.00
                0.2976                   1
 p    1 1.00
                 1.275                   1

[5d]
[7f]
[9g]

[MO]
 Sym= A
 Ene=               0
 Spin= Alpha
 Occup=    1.00000
   1       1.2399369268076
   2     -0.48472756150224
   3    1.4288589869842e-08
   4    -2.3160292187888e-17
   5    -0.0044864383020556
   6    -0.016244318053676
   7     0.038832348853341
   8    9.4354952840739e-12
   9    1.1585895026776e-17
  10     0.011380889836873
  11    -0.0095960192349776
  12     0.035883768942883
  13    -0.013110760088667
  14    -0.0095254317911086
  15    -0.011609684635176
  16    -0.0095960192349776
  17     0.035883768942883
  18    -0.013110760088667
  19    0.0095254317911085
  20    -0.011609684635176
  21    -0.0095960185168896
  22      0.03588371063874
  23    0.0050079068561435
  24    -0.015412510251519
  25    -0.011609657510558
  26    -0.0095960185168897
  27      0.03588371063874
  28    0.0050079068561435
  29     0.015412510251519
  30    -0.011609657510558
  31    -0.0095959549915998
  32     0.035883792509673
  33     0.016205826511656
  34    -1.5098750273299e-18
  35    -0.011609775846312
 Sym= A
 Ene=               1
 Spin= Alpha
 Occup=    1.00000
   1     -0.48472756150224
   2       1.3376185614078
   3    -4.6817840850039e-08
   4    -3.2448171025936e-17
   5     0.012331402392291
   6     0.038933039867525
   7    -0.097994348191624
   8    -3.4427286210845e-11
   9    1.2878565283723e-20
  10    -0.023441648121729
  11     0.035048007194602
  12      -0.1120657100575
  13     0.026809583821961
  14     0.019478070391173
  15     0.024727566717678
  16     0.035048007194602
  17      -0.1120657100575
  18     0.026809583821961
  19    -0.019478070391173
  20     0.024727566717678
  21     0.035047923773109
  22     -0.11206537912939
  23    -0.010240456321148
  24     0.031516262672564
  25     0.024727504259805
  26     0.035047923773109
  27     -0.11206537912939
  28    -0.010240456321148
  29    -0.031516262672564
  30     0.024727504259805
  31     0.035048072730741
  32     -0.11206618307914
  33    -0.033138546839947
  34    -5.7316074767116e-19
  35     0.024727777103975
 Sym= A
 Ene=               2
 Spin= Alpha
 Occup=    1.00000
   1    1.4288589869842e-08
   2    -4.6817840850039e-08
   3       1.0032074774016
   4    6.325956019723e-17
   5    -9.5567036583995e-09
   6    -1.8988977261574e-09
   7    4.3598275600241e-09
   8    -2.9188031663354e-05
   9    5.506269907711e-17
  10    1.158105388155e-09
  11     0.012778589846928
  12    -0.026173099101462
  13    0.0022186903074204
  14    0.00011549701380224
  15    0.0015538874714851
  16     0.012778589846928
  17    -0.026173099101462
  18    0.0022186903074202
  19    -0.00011549701380229
  20    0.0015538874714853
  21    -0.004880980410863
  22    0.0099971825291763
  23    0.0020829072633292
  24    -7.1361064595335e-05
  25    -0.00059353310048257
  26    -0.0048809804108627
  27    0.0099971825291762
  28     0.002082907263329
  29    7.1361064595325e-05
  30    -0.0005935331004827
  31    -0.015795309041346
  32     0.032351997228272
  33    0.0023026729063672
  34    -4.6553592108253e-17
  35    -0.0019207512361493
 Sym= A
 Ene=               3
 Spin= Alpha
 Occup=    1.00000
   1    -2.3160292187887e-17
   2    -3.2448171025936e-17
   3    6.3259560198375e-17
   4       1.0032074475359
   5    1.305056651998e-16
   6    -6.3847126889398e-17
   7    -1.7199511371206e-17
   8    -7.1171657026621e-17
   9    -2.9188056031114e-05
  10    -1.010039603436e-16
  11    0.0092841797612756
  12    -0.019015909731572
  13    0.00011552755578353
  14    0.0021436338673084
  15    0.0011289621931446
  16    -0.0092841797612755
  17     0.019015909731572
  18    -0.00011552755578344
  19    0.0021436338673084
  20    -0.0011289621931447
  21     0.015022092263324
  22    -0.030768277150243
  23    -7.1396880050469e-05
  24     0.002279408003306
  25    0.0018266909432366
  26    -0.015022092263324
  27     0.030768277150244
  28    7.1396880050525e-05
  29    0.0022794080033057
  30    -0.0018266909432366
  31    -3.5189304195591e-17
  32    8.193718894431e-17
  33    7.6911534875525e-17
  34    0.0020597276646836
  35    -1.999609708261e-17
 Sym= A
 Ene=               4
 Spin= Alpha
 Occup=    1.00000
   1    -0.0044864383020556
   2     0.012331402392291
   3    -9.5567036583967e-09
   4    1.305056651998e-16
   5       1.0026333633001
   6    -0.0095676262124624
   7      0.01924097634785
   8    -7.7276082229184e-12
   9    -2.4764378861621e-17
  10    0.00027510377015835
  11    0.0089142556166702
  12    -0.017830088158305
  13    0.0011762849515616
  14    0.00085459184737299
  15    0.0012417537465079
  16    0.0089142556166701
  17    -0.017830088158305
  18    0.0011762849515617
  19    -0.0008545918473731
  20    0.0012417537465079
  21    0.0089142147698088
  22    -0.017829988214249
  23    -0.00044931279119893
  24    0.0013827604238832
  25    0.0012417467068456
  26    0.0089142147698087
  27    -0.017829988214249
  28    -0.00044931279119888
  29    -0.0013827604238832
  30    0.0012417467068457
  31    0.0089143396945498
  32    -0.017830264833909
  33    -0.0014539908826227
  34    -1.3922950620486e-17
  35    0.0012417775800865
 Sym= A
 Ene=               5
 Spin= Alpha
 Occup=    1.00000
   1    -0.016244318053676
   2     0.038933039867525
   3    -1.8988977261573e-09
   4    -6.3847126889398e-17
   5    -0.0095676262124624
   6       1.2202413746705
   7     -0.44065048397364
   8    -1.3462915759964e-12
   9    -1.2343930137569e-18
  10    -0.0010544148700263
  11    0.0014224095573512
  12    -0.0040503601211297
  13     0.001169505608944
  14    0.0008496856225745
  15    0.0010575541669585
  16    0.0014224095573513
  17    -0.0040503601211297
  18     0.001169505608944
  19    -0.00084968562257454
  20    0.0010575541669585
  21    0.0014224061208289
  22    -0.0040503477719993
  23    -0.00044671591552986
  24    0.0013748239548648
  25    0.0010575515558018
  26    0.0014224061208289
  27    -0.0040503477719993
  28    -0.00044671591552989
  29    -0.0013748239548647
  30    0.0010575515558018
  31     0.001422410572591
  32    -0.0040503744755981
  33    -0.0014455915119462
  34    -4.6848785203491e-18
  35    0.0010575629571624
 Sym= A
 Ene=               6
 Spin= Alpha
 Occup=    1.00000
   1     0.038832348853341
   2    -0.097994348191624
   3    4.3598275600241e-09
   4    -1.7199511371206e-17
   5      0.01924097634785
   6     -0.44065048397364
   7       1.2290801060828
   8    3.114343295218e-12
   9    2.3026623592293e-19
  10    0.0024152086802299
  11    -0.0031931793085377
  12    0.0095736220149693
  13    -0.0027044115602779
  14    -0.0019648473354307
  15    -0.0024422861094757
  16    -0.0031931793085377
  17    0.0095736220149692
  18    -0.0027044115602779
  19    0.0019648473354306
  20    -0.0024422861094757
  21    -0.0031931717617468
  22    0.0095735932847274
  23    0.0010330036406369
  24    -0.0031791981318175
  25    -0.0024422800493928
  26    -0.0031931717617468
  27    0.0095735932847274
  28     0.001033003640637
  29    0.0031791981318175
  30    -0.0024422800493928
  31    -0.0031931819370829
  32    0.0095736573622971
  33    0.0033428440371049
  34    4.9624294827163e-18
  35    -0.0024423065122894
 Sym= A
 Ene=               7
 Spin= Alpha
 Occup=    0.00000
   1    9.4354952840729e-12
   2    -3.4427286210845e-11
   3    -2.9188031663354e-05
   4    -7.1171655475003e-17
   5    -7.7276082229067e-12
   6    -1.3462915759955e-12
   7    3.114343295218e-12
   8       1.0000000036815
   9    8.6529553376163e-18
  10    8.4702742369571e-13
  11    1.1146340849299e-05
  12    -2.173191011747e-05
  13    3.2483873979285e-07
  14    -1.173487240103e-06
  15    -6.679594241414e-08
  16    1.1146340849403e-05
  17    -2.1731910117405e-05
  18    3.2483873967814e-07
  19    1.1734872403355e-06
  20    -6.679594239903e-08
  21    -4.2575185182718e-06
  22    8.3008096043098e-06
  23    1.7043518239478e-06
  24    7.2527239560869e-07
  25    2.551244566266e-08
  26    -4.257518518163e-06
  27    8.3008096041563e-06
  28    1.7043518239065e-06
  29    -7.2527239587571e-07
  30    2.551244557135e-08
  31    -1.3777736487847e-05
  32    2.6862343373991e-05
  33    -5.2773454549488e-07
  34    4.2675497193143e-18
  35    8.2563853895639e-08
 Sym= A
 Ene=               8
 Spin= Alpha
 Occup=    0.00000
   1    1.1585895026773e-17
   2    1.2878565283941e-20
   3    5.5062699048285e-17
   4    -2.9188056031114e-05
   5    -2.4764378861614e-17
   6    -1.2343930137571e-18
   7    2.3026623592293e-19
   8    8.6527496071895e-18
   9       1.0000000036815
  10    -3.5400957414006e-16
  11    8.0982796630161e-06
  12    -1.5789186112486e-05
  13    -1.1734625023432e-06
  14    1.0874247176645e-06
  15    -4.8529284974257e-08
  16    -8.0982796627987e-06
  17    1.5789186112387e-05
  18    1.1734625023925e-06
  19    1.0874247177502e-06
  20    4.8529285017906e-08
  21    1.3103267967934e-05
  22    -2.5547349696855e-05
  23    7.2524301017129e-07
  24    -2.9208407217359e-07
  25    -7.8521677522783e-08
  26    -1.3103267968127e-05
  27    2.5547349697022e-05
  28    -7.2524301004603e-07
  29    -2.9208407213976e-07
  30    7.8521677642589e-08
  31    -3.2761255279373e-17
  32    -6.9192953914443e-17
  33    3.6738957167114e-17
  34    1.9400214000446e-06
  35    -8.8074559368604e-17
 Sym= A
 Ene=               9
 Spin= Alpha
 Occup=    0.00000
   1     0.011380889836873
   2    -0.023441648121729
   3    1.1581053881546e-09
   4    -1.010039603436e-16
   5    0.00027510377015834
   6    -0.0010544148700263
   7    0.0024152086802299
   8    8.4702742369983e-13
   9    -3.5400957413987e-16
  10        1.000557964686
  11    -0.00092206286163642
  12    0.0025982048559497
  13    -0.00062832598373474
  14    -0.00045649982469877
  15    -0.00058684456145034
  16    -0.00092206286163645
  17    0.0025982048559497
  18    -0.00062832598373475
  19    0.00045649982469879
  20    -0.00058684456145037
  21    -0.00092206062395751
  22    0.0025981969773347
  23    0.00024000178474234
  24    -0.00073863434939947
  25    -0.00058684308516886
  26    -0.00092206062395741
  27    0.0025981969773347
  28    0.00024000178474232
  29    0.00073863434939943
  30    -0.00058684308516888
  31    -0.00092206462273898
  32    0.0025982152347411
  33    0.00077665528334719
  34    1.3836157084452e-17
  35    -0.00058684953397051
 Sym= A
 Ene=              10
 Spin= Alpha
 Occup=    0.00000
   1    -0.0095960192349776
   2     0.035048007194602
   3     0.012778589846928
   4    0.0092841797612756
   5    0.0089142556166701
   6    0.0014224095573513
   7    -0.0031931793085377
   8    1.1146340849299e-05
   9    8.0982796630161e-06
  10    -0.00092206286163642
  11       1.2304879840108
  12     -0.46425997592333
  13    0.0037827574062982
  14    0.0027484195743775
  15    0.0010771690262438
  16    -0.012809312727085
  17     0.043090447137102
  18    0.00089364343159965
  19     0.019874218183421
  20    0.0010413151902903
  21    -0.012809467430109
  22     0.043090127826246
  23     0.019177215248553
  24    -0.0052914522722286
  25    0.0010413121993036
  26     0.002868926525392
  27    -0.0083627822390351
  28    -0.002762206324001
  29    -0.0015934158952311
  30    0.00098329973676506
  31    0.0028689183923982
  32    -0.0083628384264847
  33    -0.0023690221259465
  34    -0.0021346465961831
  35    0.00098331030492124
 Sym= A
 Ene=              11
 Spin= Alpha
 Occup=    0.00000
   1     0.035883768942883
   2      -0.1120657100575
   3    -0.026173099101462
   4    -0.019015909731572
   5    -0.017830088158305
   6    -0.0040503601211297
   7    0.0095736220149693
   8    -2.173191011747e-05
   9    -1.5789186112486e-05
  10    0.0025982048559497
  11     -0.46425997592333
  12       1.2891698977916
  13    -0.010129666086913
  14    -0.0073599026364891
  15     -0.00293230040689
  16     0.043090447137102
  17     -0.13193280220602
  18    -0.0024135313675823
  19    -0.041483084475094
  20    -0.0028654331930125
  21     0.043090125446822
  22     -0.13193064445841
  23    -0.040197539545507
  24     0.010523304164432
  25    -0.0028654255844355
  26    -0.0083628477382859
  27     0.025263371963549
  28    0.0077232845719691
  29    0.0045973647360921
  30    -0.002757232649299
  31    -0.0083627752648931
  32     0.025263376873402
  33    0.0067590205087318
  34    0.0059246511839069
  35    -0.0027572626938589
 Sym= A
 Ene=              12
 Spin= Alpha
 Occup=    0.00000
   1    -0.013110760088667
   2     0.026809583821961
   3    0.0022186903074203
   4    0.00011552755578354
   5    0.0011762849515616
   6     0.001169505608944
   7    -0.0027044115602779
   8    3.2483873979285e-07
   9    -1.1734625023432e-06
  10    -0.00062832598373474
  11    0.0037827574062982
  12    -0.010129666086913
  13       1.0026131002619
  14    -6.4698775236518e-05
  15    0.00066696874922476
  16    0.00089364343159955
  17    -0.0024135313675823
  18    0.00048389931975927
  19    -0.00016035313501203
  20    0.00066720397857458
  21    -0.018624923131006
  22      0.03870592006668
  23    0.0035573186450748
  24    -0.00083826251156035
  25    0.00065956470957308
  26    0.00066187010536362
  27    -0.0019857494129975
  28    -0.00048074103593854
  29    -0.00061584411252835
  30    0.00065994531691592
  31    0.0031712602652415
  32    -0.0089505449840926
  33    -0.0020520531340831
  34    -0.0015468801083073
  35    0.00065523219290121
 Sym= A
 Ene=              13
 Spin= Alpha
 Occup=    0.00000
   1    -0.0095254317911086
   2     0.019478070391173
   3    0.00011549701380225
   4    0.0021436338673084
   5     0.000854591847373
   6    0.0008496856225745
   7    -0.0019648473354307
   8    -1.1734872401029e-06
   9    1.0874247176645e-06
  10    -0.00045649982469876
  11    0.0027484195743775
  12    -0.0073599026364891
  13    -6.469877523646e-05
  14       1.0026552326442
  15     0.000484574928025
  16    -0.019874218183421
  17     0.041483084475094
  18    0.00016035313501217
  19    0.0038820995315686
  20    0.00047671514006131
  21    0.0069912200386835
  22    -0.015114010451543
  23    -0.0011589626086737
  24    0.00080837827254855
  25    0.00048722631633315
  26    0.0031194355786364
  27    -0.0087659735596336
  28    -0.0020574311563398
  29    -0.0013493310668029
  30    0.00047450896982832
  31    -0.00033448105692865
  32    0.00082027955244443
  33    -0.00010529559770053
  34    0.00022197153189785
  35    0.00048101128463062
 Sym= A
 Ene=              14
 Spin= Alpha
 Occup=    0.00000
   1    -0.011609684635176
   2     0.024727566717678
   3    0.0015538874714851
   4    0.0011289621931446
   5    0.0012417537465079
   6    0.0010575541669585
   7    -0.0024422861094757
   8    -6.6795942413342e-08
   9    -4.8529284974246e-08
  10    -0.00058684456145033
  11    0.0010771690262438
  12     -0.00293230040689
  13    0.00066696874922475
  14    0.00048457492802499
  15       1.0006267371114
  16    0.0010413151902905
  17    -0.0028654331930126
  18    0.00066720397857444
  19    -0.00047671514006106
  20    0.00032949367676737
  21     0.001041312338402
  22    -0.0028654241637501
  23    -0.00024721438759613
  24    0.00078185603981211
  25    0.00032951492226978
  26    0.00098329972690274
  27    -0.002757231172621
  28    -0.00024735978036749
  29    -0.00077427291713889
  30    0.0006166393750566
  31    0.00098330428476816
  32    -0.0027572509595907
  33    -0.00081282367543831
  34    4.0154026678164e-06
  35    0.0006166461175742
 Sym= A
 Ene=              15
 Spin= Alpha
 Occup=    0.00000
   1    -0.0095960192349776
   2     0.035048007194601
   3     0.012778589846928
   4    -0.0092841797612755
   5    0.0089142556166701
   6    0.0014224095573513
   7    -0.0031931793085377
   8    1.1146340849403e-05
   9    -8.0982796627987e-06
  10    -0.00092206286163645
  11    -0.012809312727085
  12     0.043090447137102
  13    0.00089364343159956
  14    -0.019874218183421
  15    0.0010413151902905
  16       1.2304879840108
  17     -0.46425997592333
  18    0.0037827574062982
  19    -0.0027484195743774
  20    0.0010771690262439
  21    0.0028689265253922
  22    -0.0083627822390351
  23    -0.0027622063240012
  24    0.0015934158952311
  25    0.00098329973676479
  26    -0.012809467430109
  27     0.043090127826246
  28     0.019177215248553
  29    0.0052914522722286
  30    0.0010413121993034
  31     0.002868918392398
  32    -0.0083628384264846
  33    -0.0023690221259466
  34    0.0021346465961831
  35    0.00098331030492098
 Sym= A
 Ene=              16
 Spin= Alpha
 Occup=    0.00000
   1     0.035883768942883
   2      -0.1120657100575
   3    -0.026173099101462
   4     0.019015909731572
   5    -0.017830088158305
   6    -0.0040503601211297
   7    0.0095736220149693
   8    -2.1731910117405e-05
   9    1.5789186112387e-05
  10    0.0025982048559497
  11     0.043090447137102
  12     -0.13193280220602
  13    -0.0024135313675823
  14     0.041483084475094
  15    -0.0028654331930126
  16     -0.46425997592333
  17       1.2891698977916
  18    -0.010129666086912
  19     0.007359902636489
  20    -0.0029323004068901
  21    -0.0083628477382859
  22     0.025263371963549
  23    0.0077232845719691
  24    -0.004597364736092
  25    -0.0027572326492988
  26     0.043090125446822
  27     -0.13193064445841
  28    -0.040197539545507
  29    -0.010523304164432
  30    -0.0028654255844352
  31    -0.0083627752648931
  32     0.025263376873402
  33    0.0067590205087319
  34    -0.0059246511839068
  35    -0.0027572626938587
 Sym= A
 Ene=              17
 Spin= Alpha
 Occup=    0.00000
   1    -0.013110760088667
   2     0.026809583821961
   3    0.0022186903074202
   4    -0.00011552755578342
   5    0.0011762849515616
   6     0.001169505608944
   7    -0.0027044115602779
   8    3.2483873967813e-07
   9    1.1734625023928e-06
  10    -0.00062832598373475
  11    0.00089364343159965
  12    -0.0024135313675823
  13    0.00048389931975929
  14    0.00016035313501217
  15    0.0006672039785744
  16    0.0037827574062982
  17    -0.010129666086912
  18       1.0026131002619
  19    6.4698775236308e-05
  20    0.00066696874922469
  21    0.00066187010536368
  22    -0.0019857494129977
  23    -0.00048074103593839
  24    0.00061584411252851
  25    0.00065994531691575
  26    -0.018624923131006
  27      0.03870592006668
  28    0.0035573186450747
  29    0.00083826251156034
  30    0.00065956470957307
  31    0.0031712602652415
  32    -0.0089505449840926
  33    -0.0020520531340829
  34    0.0015468801083073
  35    0.00065523219290127
 Sym= A
 Ene=              18
 Spin= Alpha
 Occup=    0.00000
   1    0.0095254317911085
   2    -0.019478070391173
   3    -0.00011549701380226
   4    0.0021436338673084
   5    -0.0008545918473731
   6    -0.00084968562257454
   7    0.0019648473354306
   8    1.1734872403357e-06
   9    1.0874247177502e-06
  10    0.00045649982469879
  11     0.019874218183421
  12    -0.041483084475094
  13    -0.00016035313501202
  14    0.0038820995315686
  15    -0.00047671514006106
  16    -0.0027484195743774
  17    0.0073599026364889
  18    6.4698775236315e-05
  19       1.0026552326442
  20    -0.00048457492802505
  21    -0.0031194355786365
  22    0.0087659735596336
  23    0.0020574311563399
  24    -0.0013493310668029
  25    -0.00047450896982838
  26    -0.0069912200386834
  27     0.015114010451543
  28    0.0011589626086737
  29    0.00080837827254859
  30    -0.0004872263163332
  31    0.00033448105692873
  32    -0.0008202795524445
  33    0.0001052955977005
  34    0.00022197153189783
  35    -0.00048101128463065
 Sym= A
 Ene=              19
 Spin= Alpha
 Occup=    0.00000
   1    -0.011609684635176
   2     0.024727566717678
   3    0.0015538874714853
   4    -0.0011289621931447
   5    0.0012417537465079
   6    0.0010575541669585
   7    -0.0024422861094757
   8    -6.6795942399248e-08
   9    4.8529285017905e-08
  10    -0.00058684456145036
  11    0.0010413151902903
  12    -0.0028654331930125
  13    0.00066720397857461
  14    0.00047671514006129
  15    0.00032949367676747
  16    0.0010771690262439
  17    -0.0029323004068901
  18    0.00066696874922468
  19    -0.00048457492802506
  20       1.0006267371114
  21    0.00098329972690264
  22    -0.0027572311726207
  23    -0.00024735978036759
  24    0.00077427291713879
  25    0.00061663937505678
  26    0.0010413123384021
  27    -0.0028654241637504
  28    -0.00024721438759613
  29    -0.00078185603981214
  30    0.00032951492226995
  31    0.00098330428476817
  32    -0.0027572509595908
  33    -0.00081282367543821
  34    -4.0154026679147e-06
  35    0.00061664611757425
 Sym= A
 Ene=              20
 Spin= Alpha
 Occup=    0.00000
   1    -0.0095960185168896
   2     0.035047923773109
   3    -0.004880980410863
   4     0.015022092263324
   5    0.0089142147698088
   6    0.0014224061208289
   7    -0.0031931717617468
   8    -4.2575185182718e-06
   9    1.3103267967934e-05
  10    -0.00092206062395751
  11    -0.012809467430109
  12     0.043090125446822
  13    -0.018624923131006
  14    0.0069912200386835
  15     0.001041312338402
  16    0.0028689265253922
  17    -0.0083628477382859
  18    0.00066187010536367
  19    -0.0031194355786365
  20    0.00098329972690263
  21       1.2304879644795
  22     -0.46425992874999
  23    -0.0014448395495013
  24    0.0044469626096212
  25    0.0010771632819973
  26    0.0028689416539953
  27    -0.0083628820222971
  28    0.0012980965480527
  29    -0.0029127261945554
  30    0.00098329732980946
  31    -0.012809333923159
  32     0.043090456991663
  33     0.010958738026527
  34     0.016603848407736
  35    0.0010413217685975
 Sym= A
 Ene=              21
 Spin= Alpha
 Occup=    0.00000
   1      0.03588371063874
   2     -0.11206537912939
   3    0.0099971825291763
   4    -0.030768277150243
   5    -0.017829988214249
   6    -0.0040503477719993
   7    0.0095735932847274
   8    8.3008096043098e-06
   9    -2.5547349696855e-05
  10    0.0025981969773347
  11     0.043090127826246
  12     -0.13193064445841
  13      0.03870592006668
  14    -0.015114010451543
  15    -0.0028654241637501
  16    -0.008362782239035
  17     0.025263371963549
  18    -0.0019857494129977
  19    0.0087659735596336
  20    -0.0027572311726207
  21     -0.46425992874999
  22       1.2891697682433
  23    0.0038690432993585
  24    -0.011908338989717
  25    -0.0029322833290527
  26    -0.0083628820222972
  27     0.025263642663229
  28    -0.0035460326009615
  29    0.0082590905777646
  30    -0.0027572241843286
  31     0.043090474245267
  32     -0.13193278183332
  33    -0.022430427296307
  34    -0.034979136872764
  35    -0.0028654492669072
 Sym= A
 Ene=              22
 Spin= Alpha
 Occup=    0.00000
   1    0.0050079068561435
   2    -0.010240456321148
   3    0.0020829072633292
   4    -7.1396880050464e-05
   5    -0.00044931279119894
   6    -0.00044671591552987
   7    0.0010330036406369
   8    1.7043518239475e-06
   9    7.2524301017141e-07
  10    0.00024000178474234
  11     0.019177215248553
  12    -0.040197539545507
  13    0.0035573186450747
  14    -0.0011589626086737
  15    -0.00024721438759616
  16    -0.0027622063240012
  17    0.0077232845719691
  18    -0.00048074103593841
  19    0.0020574311563399
  20    -0.00024735978036758
  21    -0.0014448395495013
  22    0.0038690432993585
  23        1.002689181487
  24    4.0026156076148e-05
  25    -0.00025476159109384
  26    0.0012980965480525
  27    -0.0035460326009613
  28    0.0004904071780525
  29    -0.00072080749292803
  30    -0.00025499684046246
  31     -0.01240469554572
  32     0.026335633814768
  33    0.0016579381483379
  34    0.0017762774675842
  35    -0.00025957473477368
 Sym= A
 Ene=              23
 Spin= Alpha
 Occup=    0.00000
   1    -0.015412510251519
   2     0.031516262672564
   3    -7.1361064595348e-05
   4    0.0022794080033059
   5    0.0013827604238832
   6    0.0013748239548648
   7    -0.0031791981318175
   8    7.2527239560875e-07
   9    -2.9208407217411e-07
  10    -0.00073863434939947
  11    -0.0052914522722286
  12     0.010523304164432
  13    -0.00083826251156034
  14    0.00080837827254855
  15    0.00078185603981211
  16    0.0015934158952311
  17    -0.004597364736092
  18    0.0006158441125285
  19    -0.0013493310668029
  20    0.00077427291713877
  21    0.0044469626096212
  22    -0.011908338989717
  23    4.0026156076145e-05
  24       1.0025791419444
  25    0.00078405894726703
  26    0.0029127261945553
  27    -0.0082590905777646
  28    0.00072080749292806
  29    -0.0023204873223525
  30    0.00077178925255591
  31    -0.015553343379635
  32      0.03214194957709
  33    0.0014555782308757
  34     0.002708038979572
  35    0.00077784713989159
 Sym= A
 Ene=              24
 Spin= Alpha
 Occup=    0.00000
   1    -0.011609657510558
   2     0.024727504259805
   3    -0.00059353310048258
   4    0.0018266909432366
   5    0.0012417467068456
   6    0.0010575515558018
   7    -0.0024422800493928
   8    2.5512445662609e-08
   9    -7.8521677523104e-08
  10    -0.00058684308516886
  11    0.0010413121993036
  12    -0.0028654255844355
  13    0.00065956470957305
  14    0.00048722631633315
  15    0.00032951492226984
  16    0.00098329973676479
  17    -0.0027572326492988
  18    0.00065994531691577
  19    -0.00047450896982838
  20    0.0006166393750568
  21    0.0010771632819973
  22    -0.0029322833290527
  23    -0.00025476159109383
  24     0.000784058947267
  25       1.0006267338974
  26    0.0009832973298094
  27    -0.0027572241843285
  28    -0.00025499684046267
  29    -0.0007717892525559
  30    0.00061663785310039
  31    0.0010413149467841
  32    -0.0028654380370304
  33    -0.00081998888941313
  34    6.497028580088e-06
  35    0.00032949851696928
 Sym= A
 Ene=              25
 Spin= Alpha
 Occup=    0.00000
   1    -0.0095960185168897
   2     0.035047923773109
   3    -0.0048809804108627
   4    -0.015022092263324
   5    0.0089142147698087
   6    0.0014224061208289
   7    -0.0031931717617468
   8    -4.2575185181631e-06
   9    -1.3103267968127e-05
  10    -0.00092206062395741
  11     0.002868926525392
  12    -0.008362847738286
  13    0.00066187010536361
  14    0.0031194355786364
  15    0.00098329972690274
  16    -0.012809467430109
  17     0.043090125446822
  18    -0.018624923131006
  19    -0.0069912200386834
  20    0.0010413123384021
  21    0.0028689416539952
  22    -0.0083628820222972
  23    0.0012980965480526
  24    0.0029127261945553
  25    0.0009832973298094
  26       1.2304879644795
  27     -0.46425992874999
  28    -0.0014448395495014
  29    -0.0044469626096211
  30    0.0010771632819974
  31    -0.012809333923159
  32     0.043090456991663
  33     0.010958738026527
  34    -0.016603848407736
  35    0.0010413217685976
 Sym= A
 Ene=              26
 Spin= Alpha
 Occup=    0.00000
   1      0.03588371063874
   2     -0.11206537912939
   3    0.0099971825291762
   4     0.030768277150244
   5    -0.017829988214249
   6    -0.0040503477719993
   7    0.0095735932847274
   8    8.3008096041563e-06
   9    2.5547349697022e-05
  10    0.0025981969773347
  11    -0.0083627822390352
  12     0.025263371963549
  13    -0.0019857494129975
  14    -0.0087659735596336
  15    -0.002757231172621
  16     0.043090127826246
  17     -0.13193064445841
  18      0.03870592006668
  19     0.015114010451543
  20    -0.0028654241637504
  21    -0.0083628820222971
  22     0.025263642663229
  23    -0.0035460326009613
  24    -0.0082590905777646
  25    -0.0027572241843285
  26     -0.46425992874999