[Molden Format]
made by pyscf v[2.2.1]
[Atoms] (AU)
Cr   1   24    -2.49591247080304     0.00009448630623    -0.00013228082872
Cr   2   24     2.49589357354180     0.00009448630623    -0.00013228082872
O   3   8     0.00000000000000    -0.31337328323662     2.74894679888230
O   4   8     0.00000000000000     2.53746754828223    -1.10307093343112
O   5   8     0.00000000000000    -2.22388639517190    -1.64597035175741
H   6   1     0.00003779452249     0.94728191172197     4.08167614823181
H   7   1     0.00105824662976     3.05888078057222    -2.86195242113129
H   8   1    -0.00083147949481    -4.00771226771634    -1.21722928861609
N   9   7    -5.00739628487250    -2.73195816102246     1.34438895953808
H   10   1    -4.13275544537881    -4.12334460927847     2.35157518940876
H   11   1    -5.77114799537672    -3.48503291892289    -0.25713503376957
H   12   1    -6.36321808746420    -1.89940152232283     2.43247436480139
N   13   7    -5.00739628487250     2.53038107531511     1.69376152544767
N   14   7    -5.00739628487250     0.20176605831981    -3.03824497129197
H   15   1    -6.36321808746420    -1.15681474441375    -2.86125322246521
H   16   1    -5.77114799537672     1.51994451651017     3.14669635358076
N   17   7     5.00739628487250    -2.73193926376122     1.34438895953808
N   18   7     5.00737738761126     2.53039997257635     1.69376152544767
N   19   7     5.00739628487250     0.20178495558106    -3.03824497129197
H   20   1    -4.13277434264005     4.09830573812799     2.39513337657999
H   21   1    -6.36321808746420     3.05638634208779     0.42870326861883
H   22   1    -4.13275544537881     0.02520894650170    -4.74680305229498
H   23   1    -5.77116689263796     1.96527737502517    -2.88965580611742
H   24   1     4.13275544537881    -4.12332571201723     2.35157518940876
H   25   1     5.77114799537672    -3.48501402166164    -0.25715393103081
H   26   1     6.36321808746420    -1.89936372780034     2.43245546754015
H   27   1     4.13273654811756     4.09832463538923     2.39513337657999
H   28   1     5.77114799537672     1.51996341377142     3.14669635358076
H   29   1     6.36319919020295     3.05640523934904     0.42868437135758
H   30   1     4.13275544537881     0.02522784376294    -4.74680305229498
H   31   1     5.77114799537672     1.96529627228642    -2.88965580611742
H   32   1     6.36321808746420    -1.15679584715250    -2.86125322246521
[GTO]
1 0
 s    6 1.00
              51789.81  0.0017761819555629
              7776.849   0.013604759659632
              1771.385    0.06706924832204
              499.1588    0.23231039418799
              159.7982    0.48024098798518
              54.47021    0.34876529127448
 s    6 1.00
              1064.328  0.0023996690266464
              253.2138   0.031948860354767
              81.60924    0.12508680138899
              30.48193  -0.032218660357763
              12.29439   -0.61722840685383
              5.037722   -0.45259360502569
 s    6 1.00
              41.56291  -0.003454215977732
              13.67627   0.072184279534656
               5.84439    0.25448199835945
              2.471609   -0.29345339810822
              1.028308   -0.73854549523889
               0.40725   -0.19471569874474
 s    3 1.00
              1.571464     0.0589222145985
               0.60558    0.29760562424265
              0.098561    -1.1475064790543
 s    1 1.00
              0.036459                   1
 p    6 1.00
              1064.328  0.0039869969688977
              253.2138   0.031046619757807
              81.60924    0.13505179894647
              30.48193    0.34488649730956
              12.29439    0.46285709638928
              5.037722    0.21104259835367
 p    6 1.00
              41.56291  -0.0067224970170094
              13.67627   -0.02806471007101
               5.84439    0.05820028014726
              2.471609    0.39169880099109
              1.028308    0.50478230127721
               0.40725    0.17902900045298
 p    3 1.00
              1.571464   -0.19301000799964
               0.60558   0.096056203981218
              0.098561    0.98176094069081
 p    1 1.00
              0.036459                   1
 d    3 1.00
               18.4193   0.086508163346808
              4.812661    0.38266991480465
              1.446447    0.70937722744422
 d    1 1.00
              0.400413                   1
 f    1 1.00
                   0.8                   1

2 0
 s    6 1.00
              51789.81  0.0017761819555629
              7776.849   0.013604759659632
              1771.385    0.06706924832204
              499.1588    0.23231039418799
              159.7982    0.48024098798518
              54.47021    0.34876529127448
 s    6 1.00
              1064.328  0.0023996690266464
              253.2138   0.031948860354767
              81.60924    0.12508680138899
              30.48193  -0.032218660357763
              12.29439   -0.61722840685383
              5.037722   -0.45259360502569
 s    6 1.00
              41.56291  -0.003454215977732
              13.67627   0.072184279534656
               5.84439    0.25448199835945
              2.471609   -0.29345339810822
              1.028308   -0.73854549523889
               0.40725   -0.19471569874474
 s    3 1.00
              1.571464     0.0589222145985
               0.60558    0.29760562424265
              0.098561    -1.1475064790543
 s    1 1.00
              0.036459                   1
 p    6 1.00
              1064.328  0.0039869969688977
              253.2138   0.031046619757807
              81.60924    0.13505179894647
              30.48193    0.34488649730956
              12.29439    0.46285709638928
              5.037722    0.21104259835367
 p    6 1.00
              41.56291  -0.0067224970170094
              13.67627   -0.02806471007101
               5.84439    0.05820028014726
              2.471609    0.39169880099109
              1.028308    0.50478230127721
               0.40725    0.17902900045298
 p    3 1.00
              1.571464   -0.19301000799964
               0.60558   0.096056203981218
              0.098561    0.98176094069081
 p    1 1.00
              0.036459                   1
 d    3 1.00
               18.4193   0.086508163346808
              4.812661    0.38266991480465
              1.446447    0.70937722744422
 d    1 1.00
              0.400413                   1
 f    1 1.00
                   0.8                   1

3 0
 s    6 1.00
             5484.6717   0.001831099805527
             825.23495   0.013950098518422
             188.04696    0.06844509273075
               52.9645    0.23271427528445
              16.89757    0.47019295006289
             5.7996353    0.35852086192309
 s    3 1.00
             15.539616   -0.11077750382508
             3.5999336   -0.14802630511126
             1.0137618     1.1307670390447
 s    1 1.00
             0.2700058                   1
 p    3 1.00
             15.539616   0.070874299543311
             3.5999336    0.33975279781076
             1.0137618    0.72715859531445
 p    1 1.00
             0.2700058                   1
 d    1 1.00
                   0.8                   1

4 0
 s    6 1.00
             5484.6717   0.001831099805527
             825.23495   0.013950098518422
             188.04696    0.06844509273075
               52.9645    0.23271427528445
              16.89757    0.47019295006289
             5.7996353    0.35852086192309
 s    3 1.00
             15.539616   -0.11077750382508
             3.5999336   -0.14802630511126
             1.0137618     1.1307670390447
 s    1 1.00
             0.2700058                   1
 p    3 1.00
             15.539616   0.070874299543311
             3.5999336    0.33975279781076
             1.0137618    0.72715859531445
 p    1 1.00
             0.2700058                   1
 d    1 1.00
                   0.8                   1

5 0
 s    6 1.00
             5484.6717   0.001831099805527
             825.23495   0.013950098518422
             188.04696    0.06844509273075
               52.9645    0.23271427528445
              16.89757    0.47019295006289
             5.7996353    0.35852086192309
 s    3 1.00
             15.539616   -0.11077750382508
             3.5999336   -0.14802630511126
             1.0137618     1.1307670390447
 s    1 1.00
             0.2700058                   1
 p    3 1.00
             15.539616   0.070874299543311
             3.5999336    0.33975279781076
             1.0137618    0.72715859531445
 p    1 1.00
             0.2700058                   1
 d    1 1.00
                   0.8                   1

6 0
 s    3 1.00
             18.731137    0.03349459952309
             2.8253937    0.23472694665786
             0.6401217    0.81375731841339
 s    1 1.00
             0.1612778                   1

7 0
 s    3 1.00
             18.731137    0.03349459952309
             2.8253937    0.23472694665786
             0.6401217    0.81375731841339
 s    1 1.00
             0.1612778                   1

8 0
 s    3 1.00
             18.731137    0.03349459952309
             2.8253937    0.23472694665786
             0.6401217    0.81375731841339
 s    1 1.00
             0.1612778                   1

9 0
 s    6 1.00
              4173.511  0.0018347994430301
              627.4579   0.013994995751693
              142.9021   0.068586979179805
              40.23433    0.23224092950117
              12.82021    0.46906985760962
              4.390437    0.36045489058067
 s    3 1.00
             11.626358   -0.11496102288211
               2.71628   -0.16911803366165
              0.772218     1.1458522280731
 s    1 1.00
             0.2120313                   1
 p    3 1.00
             11.626358   0.067580023248036
               2.71628    0.32390711142648
              0.772218    0.74089525487354
 p    1 1.00
             0.2120313                   1
 d    1 1.00
                   0.8                   1

10 0
 s    3 1.00
             18.731137    0.03349459952309
             2.8253937    0.23472694665786
             0.6401217    0.81375731841339
 s    1 1.00
             0.1612778                   1

11 0
 s    3 1.00
             18.731137    0.03349459952309
             2.8253937    0.23472694665786
             0.6401217    0.81375731841339
 s    1 1.00
             0.1612778                   1

12 0
 s    3 1.00
             18.731137    0.03349459952309
             2.8253937    0.23472694665786
             0.6401217    0.81375731841339
 s    1 1.00
             0.1612778                   1

13 0
 s    6 1.00
              4173.511  0.0018347994430301
              627.4579   0.013994995751693
              142.9021   0.068586979179805
              40.23433    0.23224092950117
              12.82021    0.46906985760962
              4.390437    0.36045489058067
 s    3 1.00
             11.626358   -0.11496102288211
               2.71628   -0.16911803366165
              0.772218     1.1458522280731
 s    1 1.00
             0.2120313                   1
 p    3 1.00
             11.626358   0.067580023248036
               2.71628    0.32390711142648
              0.772218    0.74089525487354
 p    1 1.00
             0.2120313                   1
 d    1 1.00
                   0.8                   1

14 0
 s    6 1.00
              4173.511  0.0018347994430301
              627.4579   0.013994995751693
              142.9021   0.068586979179805
              40.23433    0.23224092950117
              12.82021    0.46906985760962
              4.390437    0.36045489058067
 s    3 1.00
             11.626358   -0.11496102288211
               2.71628   -0.16911803366165
              0.772218     1.1458522280731
 s    1 1.00
             0.2120313                   1
 p    3 1.00
             11.626358   0.067580023248036
               2.71628    0.32390711142648
              0.772218    0.74089525487354
 p    1 1.00
             0.2120313                   1
 d    1 1.00
                   0.8                   1

15 0
 s    3 1.00
             18.731137    0.03349459952309
             2.8253937    0.23472694665786
             0.6401217    0.81375731841339
 s    1 1.00
             0.1612778                   1

16 0
 s    3 1.00
             18.731137    0.03349459952309
             2.8253937    0.23472694665786
             0.6401217    0.81375731841339
 s    1 1.00
             0.1612778                   1

17 0
 s    6 1.00
              4173.511  0.0018347994430301
              627.4579   0.013994995751693
              142.9021   0.068586979179805
              40.23433    0.23224092950117
              12.82021    0.46906985760962
              4.390437    0.36045489058067
 s    3 1.00
             11.626358   -0.11496102288211
               2.71628   -0.16911803366165
              0.772218     1.1458522280731
 s    1 1.00
             0.2120313                   1
 p    3 1.00
             11.626358   0.067580023248036
               2.71628    0.32390711142648
              0.772218    0.74089525487354
 p    1 1.00
             0.2120313                   1
 d    1 1.00
                   0.8                   1

18 0
 s    6 1.00
              4173.511  0.0018347994430301
              627.4579   0.013994995751693
              142.9021   0.068586979179805
              40.23433    0.23224092950117
              12.82021    0.46906985760962
              4.390437    0.36045489058067
 s    3 1.00
             11.626358   -0.11496102288211
               2.71628   -0.16911803366165
              0.772218     1.1458522280731
 s    1 1.00
             0.2120313                   1
 p    3 1.00
             11.626358   0.067580023248036
               2.71628    0.32390711142648
              0.772218    0.74089525487354
 p    1 1.00
             0.2120313                   1
 d    1 1.00
                   0.8                   1

19 0
 s    6 1.00
              4173.511  0.0018347994430301
              627.4579   0.013994995751693
              142.9021   0.068586979179805
              40.23433    0.23224092950117
              12.82021    0.46906985760962
              4.390437    0.36045489058067
 s    3 1.00
             11.626358   -0.11496102288211
               2.71628   -0.16911803366165
              0.772218     1.1458522280731
 s    1 1.00
             0.2120313                   1
 p    3 1.00
             11.626358   0.067580023248036
               2.71628    0.32390711142648
              0.772218    0.74089525487354
 p    1 1.00
             0.2120313                   1
 d    1 1.00
                   0.8                   1

20 0
 s    3 1.00
             18.731137    0.03349459952309
             2.8253937    0.23472694665786
             0.6401217    0.81375731841339
 s    1 1.00
             0.1612778                   1

21 0
 s    3 1.00
             18.731137    0.03349459952309
             2.8253937    0.23472694665786
             0.6401217    0.81375731841339
 s    1 1.00
             0.1612778                   1

22 0
 s    3 1.00
             18.731137    0.03349459952309
             2.8253937    0.23472694665786
             0.6401217    0.81375731841339
 s    1 1.00
             0.1612778                   1

23 0
 s    3 1.00
             18.731137    0.03349459952309
             2.8253937    0.23472694665786
             0.6401217    0.81375731841339
 s    1 1.00
             0.1612778                   1

24 0
 s    3 1.00
             18.731137    0.03349459952309
             2.8253937    0.23472694665786
             0.6401217    0.81375731841339
 s    1 1.00
             0.1612778                   1

25 0
 s    3 1.00
             18.731137    0.03349459952309
             2.8253937    0.23472694665786
             0.6401217    0.81375731841339
 s    1 1.00
             0.1612778                   1

26 0
 s    3 1.00
             18.731137    0.03349459952309
             2.8253937    0.23472694665786
             0.6401217    0.81375731841339
 s    1 1.00
             0.1612778                   1

27 0
 s    3 1.00
             18.731137    0.03349459952309
             2.8253937    0.23472694665786
             0.6401217    0.81375731841339
 s    1 1.00
             0.1612778                   1

28 0
 s    3 1.00
             18.731137    0.03349459952309
             2.8253937    0.23472694665786
             0.6401217    0.81375731841339
 s    1 1.00
             0.1612778                   1

29 0
 s    3 1.00
             18.731137    0.03349459952309
             2.8253937    0.23472694665786
             0.6401217    0.81375731841339
 s    1 1.00
             0.1612778                   1

30 0
 s    3 1.00
             18.731137    0.03349459952309
             2.8253937    0.23472694665786
             0.6401217    0.81375731841339
 s    1 1.00
             0.1612778                   1

31 0
 s    3 1.00
             18.731137    0.03349459952309
             2.8253937    0.23472694665786
             0.6401217    0.81375731841339
 s    1 1.00
             0.1612778                   1

32 0
 s    3 1.00
             18.731137    0.03349459952309
             2.8253937    0.23472694665786
             0.6401217    0.81375731841339
 s    1 1.00
             0.1612778                   1

[5d]
[7f]
[9g]

[MO]
 Sym= A
 Ene=               0
 Spin= Alpha
 Occup=    1.00000
   1    -0.001295722202017
   2    -0.0051178417416905
   3     0.015753735757946
   4    -0.024999203462356
   5      0.02550154630182
   6     0.002955907517107
   7    -6.6127673013404e-07
   8    -2.1901313730334e-06
   9    -0.0068126359398052
  10    9.4646516801286e-07
  11    7.3368976148564e-06
  12     0.020986596945908
  13    -7.8257225014119e-06
  14    -8.2897863802434e-07
  15     0.014273977693251
  16    5.2799318420563e-06
  17    8.4477792963778e-06
  18      0.38267977983135
  19    -0.00021482059921591
  20    -6.5170094995818e-06
  21     -0.66227710289607
  22    3.8820498259285e-06
  23      0.20108255671647
  24    -0.00011273799145747
  25    -3.5139867699083e-06
  26     -0.34800339921256
  27    2.3377544146879e-06
  28    -0.00043108749283302
  29    -0.00030602770679797
  30     0.001047554769541
  31    -0.00033460352599555
  32    4.2888672097827e-07
  33    0.00039285478744033
  34     0.000271625246102
  35    -0.0014750262612837
  36    -0.0052400690048982
  37      0.01957232556987
  38     -0.01783674177532
  39    -0.026061108078604
  40    -0.0025935396903947
  41    1.8720967020313e-07
  42    -1.7894657171297e-07
  43     0.012540013982999
  44    -6.9989697184074e-07
  45    1.4200432570243e-06
  46     0.013804117457938
  47    -6.6096417393563e-07
  48    4.7940940417446e-06
  49    0.0086675336757216
  50    2.4056279902012e-06
  51    6.8785593784412e-06
  52    -0.0069645132678859
  53    2.8880637586579e-06
  54    -2.475219381306e-07
  55     0.012056979977026
  56    -2.0624091750155e-07
  57    -0.00075841512379912
  58    1.8747261840755e-06
  59    -7.4004427585507e-07
  60    0.0013100179689297
  61    -3.1198367061005e-08
  62    0.0012917571287996
  63    -0.0023208657452698
  64    -0.00010640654759747
  65    0.00099901327985596
  66    -1.1312736782689e-07
  67    0.0029972139709653
  68    -2.7523630519275e-05
  69    -0.0016338176291628
  70    0.0011170987849039
  71    0.0094442403619585
  72     0.031610965453775
  73     0.016804182950538
  74    -0.038099663781275
  75     0.027342875032557
  76     0.017479269693711
  77    -0.033859138509358
  78    -0.0030077772115935
  79    -0.00029589808586268
  80    -0.0014925780962819
  81    0.0011747258060485
  82    0.00095149134295937
  83    -0.0016309653709101
  84    0.0011090031897189
  85    0.0094350097104248
  86     0.031602163779404
  87    -0.041410757436143
  88     0.004542376399612
  89     0.027337324966963
  90    -0.038083509045757
  91    0.0018374325603453
  92    -0.0015104249988314
  93    -0.00067500364705813
  94    0.0024927066873279
  95    0.0020372166092275
  96    -0.0007345137460631
  97    -0.0016271848902563
  98    0.0011015036624143
  99    0.0094122506855909
 100     0.031602561139297
 101     0.024623720050733
 102     0.033637952237754
 103     0.027336110307938
 104     0.020626504385822
 105     0.032096768741159
 106    0.00073560975707489
 107    0.00097442660377062
 108    -0.0009962193301325
 109    0.0033316061390967
 110    -0.00022023776723014
 111    -0.011632229207868
 112    -0.0070118952332558
 113    -0.011614975621152
 114    -0.0069971053473267
 115    -0.011599862376952
 116    -0.0069854908608934
 117    -0.00089829803559706
 118    0.0012684930632452
 119    0.0041064063719474
 120    -0.010073188270615
 121     0.016534874766482
 122    -0.0065365480022338
 123     0.005031649802536
 124    0.0069917163362693
 125    -0.0025492731162807
 126    -8.7991252646639e-05
 127    -0.0012875754393993
 128    0.0032734757986139
 129    0.0047044496873718
 130    0.0014116608237346
 131    -0.017629338015482
 132     -0.01802539358429
 133     0.005539500136143
 134    0.0069997912130837
 135     0.012157534505534
 136     0.012873696335773
 137    -0.00089748373770198
 138    0.0012667987055344
 139    0.0041038197505512
 140    -0.010075756796057
 141    -0.013918052049858
 142    -0.011066727166908
 143    0.0050319873697514
 144    -0.0057033830095665
 145    -0.0047813834237002
 146    -0.00059278892284008
 147    -0.00057529159806012
 148    -0.0036086580586388
 149    0.0044135997396218
 150    -0.0018230882041697
 151    -0.00090105531061526
 152    0.0012730788212594
 153    0.0041200579753934
 154    -0.010070660836556
 155    -0.0026159532326677
 156     0.017608299145775
 157    0.0050427533035255
 158    -0.0012867301342879
 159    0.0073518399250554
 160    -0.0055020366645428
 161    0.0018669994606892
 162    0.00033586592668579
 163    0.0015819734524057
 164    0.00041109713490944
 165     0.012169002674664
 166      0.01288618837875
 167    0.0055238451748951
 168    0.0069854393665484
 169    0.0011174527134487
 170    -0.0019605656186069
 171    -0.0088890708663357
 172    0.0047884778177319
 173    -0.0025955761442241
 174    0.0012836105648354
 175    0.0032108078037458
 176    -0.0063326316991192
 177    0.0020854836888577
 178    -0.00010674316789054
 179    1.787302142081e-05
 180    1.7932957591975e-05
 181     0.000240865843707
 182    -5.18453330537e-05
 183    0.0011175618996325
 184    -0.0019613203570639
 185    -0.0088881019428319
 186    0.0047891151300728
 187     0.002409707680531
 188    0.0016057373092855
 189    0.0032107289070951
 190    0.0049730672681384
 191    0.0044411885933285
 192    -0.00012965850479533
 193    3.5939899255917e-05
 194    -3.318871887372e-05
 195    0.00022776832285079
 196    4.1430322475053e-05
 197    0.0011163091272256
 198    -0.0019582365298445
 199    -0.0088829448665028
 200     0.004783471271691
 201    0.0001853174850945
 202     -0.00288687029301
 203    0.0032065452510821
 204    0.0013596794822103
 205    -0.0065227010212936
 206    -0.000156255038408
 207    -5.3873905637417e-05
 208    1.5245107787786e-05
 209    0.00021199803390415
 210    1.0444859843946e-05
 211    -0.017627391709662
 212    -0.018023183729387
 213     0.012171506702883
 214     0.012887907193779
 215    -0.017639996777008
 216    -0.018024894589127
 217    0.0055352210080698
 218     0.006992507327927
 219    -0.00093117206449907
 220    0.00010015339405889
 221    0.00035263076417018
 222    0.00042231781507678
 223     0.001392265697921
 224    0.0014507823250129
 225    -0.00093136968411726
 226    9.8320032602306e-05
 227    0.00035266162533341
 228    0.00041975474039455
 229    0.0013925114504581
 230    0.0014517337543181
 231    -0.00093050742401145
 232    0.00010253760194859
 233    0.00035182545701651
 234    0.00042057197594404
 235    0.0013910450080637
 236    0.0014516892810162
 Sym= A
 Ene=               1
 Spin= Alpha
 Occup=    1.00000
   1    1.0285225639134e-06
   2    4.4876480727571e-06
   3    -1.150937178258e-05
   4    2.8407928306435e-05
   5    -1.4772953668256e-05
   6    -2.5088297781003e-06
   7    0.00092371458109364
   8    0.0013997235518297
   9    6.7635438712252e-06
  10    -0.0020079513711982
  11    -0.0029300851871095
  12    -1.1598353299143e-05
  13    0.0068182198575884
  14     0.011561076656541
  15    -7.438553902527e-06
  16    0.0029517726005679
  17    0.0041746022482419
  18      0.55257599076075
  19     -0.41376475116123
  20    -0.095936056668157
  21      0.31942429607308
  22     0.013290320229592
  23      0.28871704415006
  24      -0.2168516547323
  25    -0.050078959802668
  26      0.16689856784523
  27    0.0070094911617867
  28    -0.00037453899350027
  29    -0.0011912106486286
  30    0.00014256521289789
  31    0.00048264070501068
  32    0.00028024374433606
  33    -0.00092320139547273
  34    -0.00055862682336521
  35    7.9631990346583e-07
  36    3.0274589972406e-06
  37    -1.0075248160037e-05
  38    1.2906866674914e-05
  39    2.3826280563186e-05
  40    1.9360800579502e-06
  41    -0.00060638663387431
  42    0.0030961519410205
  43    -8.011155212629e-06
  44    0.0020187632067231
  45    -0.0082481047211446
  46    -4.236592418775e-06
  47    -0.00091727654173236
  48     0.015765651344224
  49    -8.359753279773e-06
  50    0.0020770839874794
  51    -0.0025470371022572
  52    0.0047384427098611
  53    -0.010220473851262
  54    0.0012706924452729
  55    0.0027283034141355
  56    0.0038068446531333
  57    0.0037817326471576
  58    -0.0084989902734884
  59    0.00069024325684362
  60    0.0021820391167301
  61    0.0027716641316019
  62    0.00026090916124953
  63    -0.00036168398500455
  64    6.926327943422e-05
  65    -0.00033803269061571
  66    -0.00015858796633422
  67    -0.0002820195220153
  68    -0.00026886221033209
  69    -0.00053462563297735
  70    0.00073369801109707
  71    0.0019149022794811
  72     0.017068669302293
  73    0.0071892806078309
  74    -0.018850352838346
  75     0.012007027745644
  76    0.0080316598448348
  77     -0.01396233822987
  78    -0.0013694602189947
  79    -0.00074239852532689
  80    -0.00087896863609492
  81    0.0020012846916958
  82    0.00047301367828557
  83    -0.0031643071876719
  84    0.0079239238361829
  85     0.013880402891738
  86    -0.011538027538996
  87     0.038817776833337
  88     0.032779408212577
  89    -0.010080747481572
  90     0.031557165351774
  91      0.02333264404235
  92    -0.0017379136865382
  93    0.0025560721302416
  94    -1.1528432964556e-05
  95    -0.0010422389132523
  96    0.0018045626423667
  97    0.0036968978054254
  98    -0.0086500802919723
  99    -0.015783137143817
 100    -0.0055625089985242
 101    -0.021757363179317
 102     0.034299309261605
 103    -0.0019510838468534
 104    -0.012550374899272
 105     0.025001100557787
 106    -0.00041798251761107
 107    0.0020566290359407
 108    -0.0020417072542835
 109    -0.0029989340341013
 110    -0.0017164836426592
 111    -0.0068762425373603
 112    -0.0079855430412451
 113    -0.014403571846148
 114    -0.0052384955229139
 115     0.021283738333915
 116     0.013228223175134
 117    -9.1709946816289e-05
 118    -4.2543867661646e-05
 119    0.0022475834335577
 120    0.0030147949629362
 121    -0.013552763403575
 122    -0.016049226725228
 123    -0.0032211709668129
 124    -0.0027208779920029
 125    0.0010947347008995
 126    -0.0015560185860508
 127    0.0043897380342229
 128    0.0022927234376354
 129    -0.0033596940117572
 130    0.0020756556416503
 131    0.0023670357486096
 132    0.00019938022028114
 133     0.016227320984632
 134     0.015467684581352
 135    -0.018068706986991
 136    -0.018668893292264
 137    0.00071590139562464
 138    -0.00052393113150163
 139    -0.006745721101832
 140    0.0032036284496502
 141     0.016218966064126
 142    -0.013904207625048
 143    0.0010482063285051
 144    0.0053502042379574
 145    -0.00045626403420917
 146    -0.0028955284418841
 147    0.0040245009289611
 148    -0.00020773609078809
 149    -0.0032409044810329
 150    -0.0023498592658422
 151    -0.00062318266672116
 152    0.00056435307630955
 153    0.0044981101452507
 154    -0.0062069070833588
 155    -0.0005212462360835
 156     0.010783336717551
 157    0.0021643623863574
 158    0.0026585271095847
 159    0.0073030087237785
 160    -0.0029606701495172
 161    0.00037203279552698
 162    8.8444977495104e-05
 163    0.0023151285137378
 164    0.00017871659194916
 165     0.007387166256928
 166    0.0077960770909192
 167     -0.01907380510378
 168    -0.013673328382559
 169    2.8651696253251e-05
 170    -6.1544693801066e-05
 171    -0.0021865384033589
 172    0.00039900498648537
 173    0.0010384408642037
 174    -0.00051575526282937
 175    -0.00062760214364324
 176    0.00038514013895631
 177    -0.0023942384857545
 178    2.6333980220948e-05
 179    -4.6533494175491e-05
 180    6.1104342366632e-05
 181    0.00013815786781241
 182    -9.0692604548743e-05
 183    0.00041229076874282
 184    -0.00091382861858134
 185    -0.0040586447599708
 186    0.0018485612333041
 187    0.00010195635171725
 188    3.7220104187328e-05
 189    0.0010006122131743
 190    0.00049773443406511
 191    -0.0011679111421424
 192    -5.4926521591678e-05
 193    -6.5874416811825e-05
 194    -2.2592558146584e-05
 195    0.00020204794887071
 196    9.3396800698184e-05
 197    -0.00044224814919423
 198    0.0009771868836511
 199    0.0062572940805224
 200    -0.0022530733505249
 201    9.1693003868499e-05
 202    -0.0010464140773569
 203    -0.00037647040801296
 204    -0.00062350976733342
 205    -0.0016763426055035
 206    0.00028027848081617
 207    0.00010325749813544
 208    -1.4055323557071e-05
 209    -0.00019518982521507
 210    1.8088217840754e-05
 211    0.0088017504376773
 212    0.0019089875461829
 213     0.010666035122794
 214     0.010855532127813
 215    -0.011145789801363
 216    -0.0020822746691362
 217    0.0028382429155738
 218    -0.001804665268881