[Molden Format]
made by pyscf v[2.2.1]
[Atoms] (AU)
Cr   1   24    -2.49591247080304     0.00009448630623    -0.00013228082872
Cr   2   24     2.49589357354180     0.00009448630623    -0.00013228082872
O   3   8     0.00000000000000    -0.31337328323662     2.74894679888230
O   4   8     0.00000000000000     2.53746754828223    -1.10307093343112
O   5   8     0.00000000000000    -2.22388639517190    -1.64597035175741
H   6   1     0.00003779452249     0.94728191172197     4.08167614823181
H   7   1     0.00105824662976     3.05888078057222    -2.86195242113129
H   8   1    -0.00083147949481    -4.00771226771634    -1.21722928861609
N   9   7    -5.00739628487250    -2.73195816102246     1.34438895953808
H   10   1    -4.13275544537881    -4.12334460927847     2.35157518940876
H   11   1    -5.77114799537672    -3.48503291892289    -0.25713503376957
H   12   1    -6.36321808746420    -1.89940152232283     2.43247436480139
N   13   7    -5.00739628487250     2.53038107531511     1.69376152544767
N   14   7    -5.00739628487250     0.20176605831981    -3.03824497129197
H   15   1    -6.36321808746420    -1.15681474441375    -2.86125322246521
H   16   1    -5.77114799537672     1.51994451651017     3.14669635358076
N   17   7     5.00739628487250    -2.73193926376122     1.34438895953808
N   18   7     5.00737738761126     2.53039997257635     1.69376152544767
N   19   7     5.00739628487250     0.20178495558106    -3.03824497129197
H   20   1    -4.13277434264005     4.09830573812799     2.39513337657999
H   21   1    -6.36321808746420     3.05638634208779     0.42870326861883
H   22   1    -4.13275544537881     0.02520894650170    -4.74680305229498
H   23   1    -5.77116689263796     1.96527737502517    -2.88965580611742
H   24   1     4.13275544537881    -4.12332571201723     2.35157518940876
H   25   1     5.77114799537672    -3.48501402166164    -0.25715393103081
H   26   1     6.36321808746420    -1.89936372780034     2.43245546754015
H   27   1     4.13273654811756     4.09832463538923     2.39513337657999
H   28   1     5.77114799537672     1.51996341377142     3.14669635358076
H   29   1     6.36319919020295     3.05640523934904     0.42868437135758
H   30   1     4.13275544537881     0.02522784376294    -4.74680305229498
H   31   1     5.77114799537672     1.96529627228642    -2.88965580611742
H   32   1     6.36321808746420    -1.15679584715250    -2.86125322246521
[GTO]
1 0
 s    6 1.00
              51789.81  0.0017761819555629
              7776.849   0.013604759659632
              1771.385    0.06706924832204
              499.1588    0.23231039418799
              159.7982    0.48024098798518
              54.47021    0.34876529127448
 s    6 1.00
              1064.328  0.0023996690266464
              253.2138   0.031948860354767
              81.60924    0.12508680138899
              30.48193  -0.032218660357763
              12.29439   -0.61722840685383
              5.037722   -0.45259360502569
 s    6 1.00
              41.56291  -0.003454215977732
              13.67627   0.072184279534656
               5.84439    0.25448199835945
              2.471609   -0.29345339810822
              1.028308   -0.73854549523889
               0.40725   -0.19471569874474
 s    3 1.00
              1.571464     0.0589222145985
               0.60558    0.29760562424265
              0.098561    -1.1475064790543
 s    1 1.00
              0.036459                   1
 p    6 1.00
              1064.328  0.0039869969688977
              253.2138   0.031046619757807
              81.60924    0.13505179894647
              30.48193    0.34488649730956
              12.29439    0.46285709638928
              5.037722    0.21104259835367
 p    6 1.00
              41.56291  -0.0067224970170094
              13.67627   -0.02806471007101
               5.84439    0.05820028014726
              2.471609    0.39169880099109
              1.028308    0.50478230127721
               0.40725    0.17902900045298
 p    3 1.00
              1.571464   -0.19301000799964
               0.60558   0.096056203981218
              0.098561    0.98176094069081
 p    1 1.00
              0.036459                   1
 d    3 1.00
               18.4193   0.086508163346808
              4.812661    0.38266991480465
              1.446447    0.70937722744422
 d    1 1.00
              0.400413                   1
 f    1 1.00
                   0.8                   1

2 0
 s    6 1.00
              51789.81  0.0017761819555629
              7776.849   0.013604759659632
              1771.385    0.06706924832204
              499.1588    0.23231039418799
              159.7982    0.48024098798518
              54.47021    0.34876529127448
 s    6 1.00
              1064.328  0.0023996690266464
              253.2138   0.031948860354767
              81.60924    0.12508680138899
              30.48193  -0.032218660357763
              12.29439   -0.61722840685383
              5.037722   -0.45259360502569
 s    6 1.00
              41.56291  -0.003454215977732
              13.67627   0.072184279534656
               5.84439    0.25448199835945
              2.471609   -0.29345339810822
              1.028308   -0.73854549523889
               0.40725   -0.19471569874474
 s    3 1.00
              1.571464     0.0589222145985
               0.60558    0.29760562424265
              0.098561    -1.1475064790543
 s    1 1.00
              0.036459                   1
 p    6 1.00
              1064.328  0.0039869969688977
              253.2138   0.031046619757807
              81.60924    0.13505179894647
              30.48193    0.34488649730956
              12.29439    0.46285709638928
              5.037722    0.21104259835367
 p    6 1.00
              41.56291  -0.0067224970170094
              13.67627   -0.02806471007101
               5.84439    0.05820028014726
              2.471609    0.39169880099109
              1.028308    0.50478230127721
               0.40725    0.17902900045298
 p    3 1.00
              1.571464   -0.19301000799964
               0.60558   0.096056203981218
              0.098561    0.98176094069081
 p    1 1.00
              0.036459                   1
 d    3 1.00
               18.4193   0.086508163346808
              4.812661    0.38266991480465
              1.446447    0.70937722744422
 d    1 1.00
              0.400413                   1
 f    1 1.00
                   0.8                   1

3 0
 s    6 1.00
             5484.6717   0.001831099805527
             825.23495   0.013950098518422
             188.04696    0.06844509273075
               52.9645    0.23271427528445
              16.89757    0.47019295006289
             5.7996353    0.35852086192309
 s    3 1.00
             15.539616   -0.11077750382508
             3.5999336   -0.14802630511126
             1.0137618     1.1307670390447
 s    1 1.00
             0.2700058                   1
 p    3 1.00
             15.539616   0.070874299543311
             3.5999336    0.33975279781076
             1.0137618    0.72715859531445
 p    1 1.00
             0.2700058                   1
 d    1 1.00
                   0.8                   1

4 0
 s    6 1.00
             5484.6717   0.001831099805527
             825.23495   0.013950098518422
             188.04696    0.06844509273075
               52.9645    0.23271427528445
              16.89757    0.47019295006289
             5.7996353    0.35852086192309
 s    3 1.00
             15.539616   -0.11077750382508
             3.5999336   -0.14802630511126
             1.0137618     1.1307670390447
 s    1 1.00
             0.2700058                   1
 p    3 1.00
             15.539616   0.070874299543311
             3.5999336    0.33975279781076
             1.0137618    0.72715859531445
 p    1 1.00
             0.2700058                   1
 d    1 1.00
                   0.8                   1

5 0
 s    6 1.00
             5484.6717   0.001831099805527
             825.23495   0.013950098518422
             188.04696    0.06844509273075
               52.9645    0.23271427528445
              16.89757    0.47019295006289
             5.7996353    0.35852086192309
 s    3 1.00
             15.539616   -0.11077750382508
             3.5999336   -0.14802630511126
             1.0137618     1.1307670390447
 s    1 1.00
             0.2700058                   1
 p    3 1.00
             15.539616   0.070874299543311
             3.5999336    0.33975279781076
             1.0137618    0.72715859531445
 p    1 1.00
             0.2700058                   1
 d    1 1.00
                   0.8                   1

6 0
 s    3 1.00
             18.731137    0.03349459952309
             2.8253937    0.23472694665786
             0.6401217    0.81375731841339
 s    1 1.00
             0.1612778                   1

7 0
 s    3 1.00
             18.731137    0.03349459952309
             2.8253937    0.23472694665786
             0.6401217    0.81375731841339
 s    1 1.00
             0.1612778                   1

8 0
 s    3 1.00
             18.731137    0.03349459952309
             2.8253937    0.23472694665786
             0.6401217    0.81375731841339
 s    1 1.00
             0.1612778                   1

9 0
 s    6 1.00
              4173.511  0.0018347994430301
              627.4579   0.013994995751693
              142.9021   0.068586979179805
              40.23433    0.23224092950117
              12.82021    0.46906985760962
              4.390437    0.36045489058067
 s    3 1.00
             11.626358   -0.11496102288211
               2.71628   -0.16911803366165
              0.772218     1.1458522280731
 s    1 1.00
             0.2120313                   1
 p    3 1.00
             11.626358   0.067580023248036
               2.71628    0.32390711142648
              0.772218    0.74089525487354
 p    1 1.00
             0.2120313                   1
 d    1 1.00
                   0.8                   1

10 0
 s    3 1.00
             18.731137    0.03349459952309
             2.8253937    0.23472694665786
             0.6401217    0.81375731841339
 s    1 1.00
             0.1612778                   1

11 0
 s    3 1.00
             18.731137    0.03349459952309
             2.8253937    0.23472694665786
             0.6401217    0.81375731841339
 s    1 1.00
             0.1612778                   1

12 0
 s    3 1.00
             18.731137    0.03349459952309
             2.8253937    0.23472694665786
             0.6401217    0.81375731841339
 s    1 1.00
             0.1612778                   1

13 0
 s    6 1.00
              4173.511  0.0018347994430301
              627.4579   0.013994995751693
              142.9021   0.068586979179805
              40.23433    0.23224092950117
              12.82021    0.46906985760962
              4.390437    0.36045489058067
 s    3 1.00
             11.626358   -0.11496102288211
               2.71628   -0.16911803366165
              0.772218     1.1458522280731
 s    1 1.00
             0.2120313                   1
 p    3 1.00
             11.626358   0.067580023248036
               2.71628    0.32390711142648
              0.772218    0.74089525487354
 p    1 1.00
             0.2120313                   1
 d    1 1.00
                   0.8                   1

14 0
 s    6 1.00
              4173.511  0.0018347994430301
              627.4579   0.013994995751693
              142.9021   0.068586979179805
              40.23433    0.23224092950117
              12.82021    0.46906985760962
              4.390437    0.36045489058067
 s    3 1.00
             11.626358   -0.11496102288211
               2.71628   -0.16911803366165
              0.772218     1.1458522280731
 s    1 1.00
             0.2120313                   1
 p    3 1.00
             11.626358   0.067580023248036
               2.71628    0.32390711142648
              0.772218    0.74089525487354
 p    1 1.00
             0.2120313                   1
 d    1 1.00
                   0.8                   1

15 0
 s    3 1.00
             18.731137    0.03349459952309
             2.8253937    0.23472694665786
             0.6401217    0.81375731841339
 s    1 1.00
             0.1612778                   1

16 0
 s    3 1.00
             18.731137    0.03349459952309
             2.8253937    0.23472694665786
             0.6401217    0.81375731841339
 s    1 1.00
             0.1612778                   1

17 0
 s    6 1.00
              4173.511  0.0018347994430301
              627.4579   0.013994995751693
              142.9021   0.068586979179805
              40.23433    0.23224092950117
              12.82021    0.46906985760962
              4.390437    0.36045489058067
 s    3 1.00
             11.626358   -0.11496102288211
               2.71628   -0.16911803366165
              0.772218     1.1458522280731
 s    1 1.00
             0.2120313                   1
 p    3 1.00
             11.626358   0.067580023248036
               2.71628    0.32390711142648
              0.772218    0.74089525487354
 p    1 1.00
             0.2120313                   1
 d    1 1.00
                   0.8                   1

18 0
 s    6 1.00
              4173.511  0.0018347994430301
              627.4579   0.013994995751693
              142.9021   0.068586979179805
              40.23433    0.23224092950117
              12.82021    0.46906985760962
              4.390437    0.36045489058067
 s    3 1.00
             11.626358   -0.11496102288211
               2.71628   -0.16911803366165
              0.772218     1.1458522280731
 s    1 1.00
             0.2120313                   1
 p    3 1.00
             11.626358   0.067580023248036
               2.71628    0.32390711142648
              0.772218    0.74089525487354
 p    1 1.00
             0.2120313                   1
 d    1 1.00
                   0.8                   1

19 0
 s    6 1.00
              4173.511  0.0018347994430301
              627.4579   0.013994995751693
              142.9021   0.068586979179805
              40.23433    0.23224092950117
              12.82021    0.46906985760962
              4.390437    0.36045489058067
 s    3 1.00
             11.626358   -0.11496102288211
               2.71628   -0.16911803366165
              0.772218     1.1458522280731
 s    1 1.00
             0.2120313                   1
 p    3 1.00
             11.626358   0.067580023248036
               2.71628    0.32390711142648
              0.772218    0.74089525487354
 p    1 1.00
             0.2120313                   1
 d    1 1.00
                   0.8                   1

20 0
 s    3 1.00
             18.731137    0.03349459952309
             2.8253937    0.23472694665786
             0.6401217    0.81375731841339
 s    1 1.00
             0.1612778                   1

21 0
 s    3 1.00
             18.731137    0.03349459952309
             2.8253937    0.23472694665786
             0.6401217    0.81375731841339
 s    1 1.00
             0.1612778                   1

22 0
 s    3 1.00
             18.731137    0.03349459952309
             2.8253937    0.23472694665786
             0.6401217    0.81375731841339
 s    1 1.00
             0.1612778                   1

23 0
 s    3 1.00
             18.731137    0.03349459952309
             2.8253937    0.23472694665786
             0.6401217    0.81375731841339
 s    1 1.00
             0.1612778                   1

24 0
 s    3 1.00
             18.731137    0.03349459952309
             2.8253937    0.23472694665786
             0.6401217    0.81375731841339
 s    1 1.00
             0.1612778                   1

25 0
 s    3 1.00
             18.731137    0.03349459952309
             2.8253937    0.23472694665786
             0.6401217    0.81375731841339
 s    1 1.00
             0.1612778                   1

26 0
 s    3 1.00
             18.731137    0.03349459952309
             2.8253937    0.23472694665786
             0.6401217    0.81375731841339
 s    1 1.00
             0.1612778                   1

27 0
 s    3 1.00
             18.731137    0.03349459952309
             2.8253937    0.23472694665786
             0.6401217    0.81375731841339
 s    1 1.00
             0.1612778                   1

28 0
 s    3 1.00
             18.731137    0.03349459952309
             2.8253937    0.23472694665786
             0.6401217    0.81375731841339
 s    1 1.00
             0.1612778                   1

29 0
 s    3 1.00
             18.731137    0.03349459952309
             2.8253937    0.23472694665786
             0.6401217    0.81375731841339
 s    1 1.00
             0.1612778                   1

30 0
 s    3 1.00
             18.731137    0.03349459952309
             2.8253937    0.23472694665786
             0.6401217    0.81375731841339
 s    1 1.00
             0.1612778                   1

31 0
 s    3 1.00
             18.731137    0.03349459952309
             2.8253937    0.23472694665786
             0.6401217    0.81375731841339
 s    1 1.00
             0.1612778                   1

32 0
 s    3 1.00
             18.731137    0.03349459952309
             2.8253937    0.23472694665786
             0.6401217    0.81375731841339
 s    1 1.00
             0.1612778                   1

[5d]
[7f]
[9g]

[MO]
 Sym= A
 Ene=               0
 Spin= Alpha
 Occup=    1.00000
   1    -0.0012957220544095
   2    -0.0051178409391228
   3      0.01575373442422
   4    -0.024999195781798
   5     0.025501545684345
   6    0.0029559083210114
   7    -6.6123507129121e-07
   8    -2.1901831043885e-06
   9     -0.00681263636031
  10    9.4644258164863e-07
  11    7.3369249579181e-06
  12     0.020986612432072
  13    -7.8249267500116e-06
  14    -8.2997238172839e-07
  15     0.014273977287919
  16    5.2799362402431e-06
  17    8.4477721913003e-06
  18       0.3826797805951
  19    -0.0002148204198313
  20    -6.5169337818663e-06
  21      -0.6622771039332
  22    3.8819148170922e-06
  23      0.20108255572651
  24    -0.00011273781214166
  25    -3.5139074439803e-06
  26     -0.34800339721895
  27    2.337615689951e-06
  28    -0.00043108755365528
  29    -0.00030602774406548
  30     0.001047554779765
  31    -0.00033460356915172
  32    4.2889008942258e-07
  33    0.00039285484310468
  34    0.00027162524634597
  35    -0.0014750263009014
  36    -0.0052400691173624
  37     0.019572326197253
  38    -0.017836742689812
  39    -0.026061107163758
  40    -0.0025935393154503
  41    1.8721107716794e-07
  42    -1.7894854954201e-07
  43     0.012540013709483
  44    -6.9991008743751e-07
  45    1.4200598162041e-06
  46     0.013804124026116
  47    -6.6100802379821e-07
  48    4.7941448479716e-06
  49    0.0086675333466282
  50    2.4056305774388e-06
  51    6.8785576110509e-06
  52    -0.0069645133459558
  53    2.8880636685934e-06
  54    -2.4752455697894e-07
  55     0.012056980085556
  56    -2.0624138045915e-07
  57    -0.00075841459966993
  58    1.8747113417739e-06
  59    -7.4002924046845e-07
  60     0.001310017163326
  61    -3.1186542553114e-08
  62    0.0012917571839489
  63    -0.0023208657850339
  64    -0.00010640657091201
  65    0.0009990133211956
  66    -1.1312716631403e-07
  67    0.0029972140250692
  68    -2.7523635447561e-05
  69    -0.0016338177617721
  70    0.0011171005274235
  71    0.0094442380954759
  72      0.03161096593946
  73     0.016804182996087
  74    -0.038099663824059
  75     0.027342872999611
  76     0.017479269388786
  77    -0.033859137984739
  78    -0.0030077773866713
  79    -0.00029589811869492
  80    -0.0014925779784157
  81    0.0011747259830593
  82    0.0009514913562465
  83    -0.0016309655156945
  84    0.0011090054425158
  85     0.009435006387542
  86     0.031602164073148
  87    -0.041410757531743
  88    0.0045423763886012
  89     0.027337323451822
  90    -0.038083508559393
  91    0.0018374326136169
  92    -0.001510425038257
  93    -0.00067500363460182
  94    0.0024927066364435
  95    0.0020372168274604
  96    -0.00073451378460377
  97    -0.001627185026824
  98     0.001101505636485
  99    0.0094122479261367
 100     0.031602561534296
 101     0.024623720134948
 102     0.033637952246031
 103     0.027336108517187
 104     0.020626503907896
 105     0.032096768563093
 106    0.00073560961877057
 107    0.00097442658468869
 108    -0.00099621940508014
 109    0.0033316063091557
 110    -0.00022023769755004
 111    -0.011632228893426
 112    -0.0070118954039653
 113    -0.011614975239127
 114    -0.0069971055320704
 115    -0.011599862038301
 116    -0.006985491039042
 117    -0.00089829868490137
 118    0.0012684961757923
 119    0.0041064103934813
 120    -0.010073187127338
 121     0.016534876910608
 122    -0.0065365489761826
 123    0.0050316509079805
 124    0.0069917180776618
 125    -0.0025492739059105
 126    -8.7991228246377e-05
 127    -0.0012875754635907
 128    0.0032734758193635
 129    0.0047044496834175
 130      0.00141166082254
 131    -0.017629337916346
 132    -0.018025393896789
 133    0.0055395007930011
 134    0.0069997909176742
 135     0.012157535208453
 136       0.0128736960539
 137    -0.00089748433301695
 138    0.0012668015866373
 139    0.0041038234430031
 140    -0.010075755847993
 141    -0.013918053918937
 142     -0.01106672835376
 143     0.005031988309866
 144    -0.0057033844956645
 145    -0.0047813843968624
 146    -0.00059278890736953
 147    -0.0005752915927436
 148    -0.0036086580912098
 149    0.0044135997306308
 150    -0.0018230882233937
 151    -0.00090105586567763
 152    0.0012730815303796
 153    0.0041200614305467
 154    -0.010070660029554
 155    -0.0026159534492162
 156     0.017608301246913
 157    0.0050427541304701
 158    -0.0012867303094449
 159      0.00735184159095
 160    -0.0055020366856467
 161    0.0018669994753375
 162    0.00033586593042828
 163    0.0015819734270636
 164    0.00041109715779696
 165     0.012169003374775
 166     0.012886188143982
 167    0.0055238458759042
 168     0.006985439120279
 169    0.0011174529061875
 170    -0.0019605665992585
 171    -0.0088890721308225
 172    0.0047884780271036
 173    -0.0025955767916364
 174    0.0012836108752331
 175    0.0032108080554184
 176    -0.0063326322504545
 177     0.002085483942242
 178    -0.00010674317885012
 179    1.7873011886914e-05
 180    1.7932946884227e-05
 181    0.0002408658469589
 182    -5.1845336838209e-05
 183    0.0011175620925574
 184    -0.0019613213340209
 185    -0.0088881032019778
 186    0.0047891153412996
 187    0.0024097082752855
 188    0.0016057377125093
 189    0.0032107291595632
 190    0.0049730677639496
 191    0.0044411889414224
 192    -0.00012965851372379
 193    3.5939907484609e-05
 194    -3.3188706589069e-05
 195    0.00022776832768295
 196    4.1430316323817e-05
 197     0.001116309320362
 198    -0.0019582375059103
 199    -0.0088829461215997
 200    0.0047834714848376
 201    0.00018531754134172
 202    -0.0028868710119502
 203    0.0032065455035138
 204    0.0013596795389027
 205    -0.0065227016256679
 206    -0.00015625503107713
 207    -5.3873904682676e-05
 208    1.524510641377e-05
 209    0.00021199804795196
 210    1.0444870047566e-05
 211    -0.017627391669156
 212     -0.01802318403177
 213     0.012171507352416
 214     0.012887906919886
 215    -0.017639996762688
 216    -0.018024894886788
 217    0.0055352216199612
 218    0.0069925070774406
 219    -0.0009311720658681
 220    0.00010015344974254
 221    0.00035263052064405
 222    0.0004223178674235
 223    0.0013922654306146
 224    0.0014507823908745
 225    -0.0009313696838947
 226    9.8320087326892e-05
 227    0.00035266138198158
 228    0.00041975479217923
 229    0.0013925111865146
 230     0.001451733819271
 231    -0.00093050742320615
 232    0.00010253765550315
 233    0.00035182521660248
 234    0.00042057202699212
 235    0.0013910447432985
 236    0.0014516893467859
 Sym= A
 Ene=               1
 Spin= Alpha
 Occup=    1.00000
   1    1.0285223426308e-06
   2    4.4876472983719e-06
   3    -1.1509368653041e-05
   4    2.8407922669466e-05
   5    -1.4772954861039e-05
   6    -2.5088301482699e-06
   7    0.00092372116200517
   8    0.0013997480392782
   9    6.7635461087679e-06
  10    -0.0020079543505931
  11    -0.0029300992254442
  12    -1.15983453331e-05
  13    0.0068183496806361
  14     0.011561539840133
  15    -7.438555499552e-06
  16    0.0029517737140752
  17      0.00417460561154
  18      0.55257593448231
  19     -0.41376484587578
  20    -0.095936030323489
  21      0.31942426358997
  22     0.013290298138452
  23      0.28871698377174
  24     -0.21685176155751
  25     -0.05007893441226
  26      0.16689853298756
  27    0.0070094732140605
  28    -0.00037453805310135
  29    -0.0011912124469604
  30    0.00014256531537638
  31    0.00048263949050638
  32    0.00028024438716078
  33    -0.0009232027881119
  34    -0.00055862722082348
  35    7.9631993007327e-07
  36    3.0274585991704e-06
  37    -1.0075249512845e-05
  38    1.290685536375e-05
  39    2.3826280205886e-05
  40    1.9360801348779e-06
  41    -0.00060638637450953
  42    0.0030961531044382
  43    -8.0111570653268e-06
  44    0.0020187611516502
  45    -0.0082481127128975
  46    -4.2366028445746e-06
  47    -0.00091728244650708
  48     0.015765631441656
  49    -8.3597524973999e-06
  50    0.0020770839825456
  51    -0.0025470359872926
  52    0.0047384460425626
  53    -0.010220473835193
  54    0.0012706889321255
  55    0.0027283053397153
  56    0.0038068448907616
  57    0.0037817192965748
  58    -0.0084989827079294
  59    0.00069025551763825
  60    0.0021820314107287
  61    0.0027716656655539
  62    0.00026090880596679
  63    -0.00036168434095956
  64    6.9263253244921e-05
  65    -0.00033803223209952
  66    -0.00015858747209599
  67    -0.00028201979794706
  68    -0.0002688621089748
  69    -0.00053462937912802
  70    0.00073380469124249
  71    0.0019146922689499
  72     0.017068627794139
  73    0.0071892925251532
  74    -0.018850360259099
  75     0.012007122908034
  76    0.0080316243129199
  77    -0.013962377587716
  78    -0.0013694434551402
  79    -0.00074239837681905
  80    -0.00087897028478042
  81    0.0020012878504895
  82    0.00047301915153071
  83    -0.0031643057462695
  84    0.0079239064171276
  85     0.013880430412769
  86    -0.011538020187518
  87      0.03881778638475
  88     0.032779428940952
  89    -0.010080757066388
  90     0.031557134540157
  91     0.023332551382392
  92    -0.0017379167512994
  93    0.0025560872000837
  94    -1.1518549090363e-05
  95    -0.0010422422592582
  96    0.0018045673833476
  97    0.0036969001092173
  98    -0.0086501695249673
  99    -0.015782954710786
 100    -0.0055624748409765
 101    -0.021757376832415
 102     0.034299313865414
 103    -0.0019511694231416
 104    -0.012550361939124
 105     0.025001038635362
 106    -0.00041798957361316
 107    0.0020566360137778
 108    -0.0020417208331798
 109    -0.0029989300166847
 110    -0.0017164914582586
 111    -0.0068762276302885
 112    -0.0079855458686073
 113    -0.014403575865471
 114    -0.0052384953275283
 115     0.021283727448201
 116     0.013228225808889
 117    -9.1705282554655e-05
 118    -4.2562325924182e-05
 119    0.0022475558384053
 120    0.0030147774612003
 121    -0.013552790126285
 122     -0.01604924969934
 123    -0.0032211863923068
 124    -0.0027208981756962
 125    0.0010947220955419
 126    -0.0015560173134425
 127    0.0043897395844801
 128    0.0022927238060861
 129    -0.0033596937484764
 130    0.0020756569101935
 131    0.0023670301302586
 132    0.00019938155333699
 133     0.016227336973948
 134     0.015467692675528
 135     -0.01806871983248
 136    -0.018668895769953
 137    0.00071591755534508
 138    -0.00052399952405221
 139    -0.0067458166954796
 140    0.0032035710326823
 141     0.016219012138937
 142    -0.013904200476447
 143    0.0010481593355625
 144    0.0053502456370287
 145    -0.0004562513772683
 146    -0.0028955281552099
 147    0.0040245019259603
 148    -0.00020773567581282
 149    -0.0032409031039265
 150    -0.0023498603568536
 151    -0.0006232034906428
 152    0.00056443992843273
 153    0.0044982333352913
 154    -0.0062068321640484
 155    -0.00052126264565675
 156     0.010783391844373
 157    0.0021644248054339
 158    0.0026585158399184
 159    0.0073030620759776
 160    -0.002960668924314
 161    0.00037203202599612
 162    8.8445111967037e-05
 163    0.0023151284817291
 164    0.00017871715963224
 165    0.0073871717442297
 166    0.0077960687642276
 167    -0.019073822899071
 168    -0.013673324118628
 169    2.8651754134441e-05
 170    -6.1544532254277e-05
 171    -0.002186538481703
 172    0.00039900519696894
 173    0.0010384412302566
 174    -0.0005157546525222
 175    -0.0006276018799129
 176    0.00038514051623934
 177    -0.0023942380344347
 178    2.6333927796007e-05
 179    -4.6533506132414e-05
 180    6.1104354194656e-05
 181    0.00013815791475762
 182    -9.0692632704916e-05
 183    0.00041229091431488
 184    -0.00091382839243187
 185    -0.0040586436768066
 186    0.0018485621540895
 187    0.00010195672132315
 188    3.722104883569e-05
 189    0.0010006124799104
 190    0.00049773450810226
 191    -0.0011679106554777
 192    -5.4926557603108e-05
 193    -6.5874373493164e-05
 194    -2.2592544238773e-05
 195    0.00020204793755743
 196    9.3396893681635e-05
 197    -0.00044224835266779
 198    0.00097718649662542
 199    0.0062572930767006
 200    -0.0022530744810508
 201    9.1693082120197e-05
 202    -0.0010464132963111
 203    -0.00037647093736796
 204    -0.00062350957295836
 205    -0.0016763423989953
 206    0.00028027849116051
 207    0.00010325761868588
 208    -1.4055323615441e-05
 209    -0.00019518990576769
 210    1.8088202346583e-05
 211    0.0088017379111683
 212    0.0019089898831394
 213     0.010666042480843
 214     0.010855542932122
 215    -0.011145771654344
 216    -0.0020822783405307
 217     0.002838244721935
 218    -0.0018046776269928