[Molden Format]
made by pyscf v[2.3.0]
[Atoms] (AU)
C   1   6     2.67566321977167     0.20692501063987     0.00018897261246
C   2   6     1.15859108697084     2.42036122034293    -0.00018897261246
C   3   6     1.51669418757592    -2.21362518231551    -0.00018897261246
C   4   6    -1.51688316018837     2.21362518231551    -0.00037794522491
C   5   6    -1.15859108697084    -2.42036122034293     0.00037794522491
C   6   6    -2.67547424715921    -0.20692501063987     0.00018897261246
C   7   6     5.33620863054682     0.41233824038010     0.00056691783737
C   8   6     2.31094607773061     4.82749435781391    -0.00018897261246
C   9   6     3.02507358020375    -4.41496714482135    -0.00094486306228
C   10   6    -3.02526255281621     4.41477817220890    -0.00132280828720
C   11   6    -2.31113505034307    -4.82711641258899     0.00056691783737
C   12   6    -5.33601965793437    -0.41252721299255     0.00075589044983
C   13   6     6.75010171694640    -1.75272098053409     0.81825141193667
C   14   6     4.89287888172386     4.96979073499366    -0.81692860364948
C   15   6     6.40125827435169     2.76863774510027    -0.81636168581211
C   16   6    -5.59793569879908     4.15834233710542    -0.81919627499895
C   17   6    -4.89231196388649    -4.96960176238120     0.81938524761141
C   18   6     1.85722283522254    -6.72156685246547    -0.81938524761141
C   19   6    -6.75010171694640     1.75158714485936    -0.81787346671176
C   20   6    -0.80313360294015    -6.92716905481815    -0.81806243932422
C   21   6     5.59812467141154    -4.15947617278016     0.81692860364948
C   22   6    -6.40050238390186    -2.76844877248782     0.81976319283632
C   23   6     0.80237771249033     6.92754700004306     0.81711757626193
C   24   6    -1.85797872567237     6.72194479769038     0.81598374058719
C   25   6     9.24983143452106    -1.57168521780076     1.79864132536103
C   26   6     5.98589647217229     7.22574578249943    -1.79599570878663
C   27   6     8.89985415625162     2.97367302961558    -1.79505084572435
C   28   6    -9.25002040713352     1.56960651906374    -1.79712954446137
C   29   6    -5.98476263649755    -7.22517886466206     1.80015310626068
C   30   6     7.02411200500833    -6.22097840206818     1.79580673617418
C   31   6    -1.87536420601837    -9.19257273294674    -1.79807440752366
C   32   6    -7.02392303239588     6.21908867594362    -1.80053105148559
C   33   6     1.87366345250626     9.19332862339657     1.79731851707383
C   34   6     3.26412393496123    -8.79497435633825    -1.80109796932296
C   35   6    -8.89796443012705    -2.97235022132839     1.80090899671050
C   36   6    -3.26563571586088     8.79629716462545     1.79523981833681
C   37   6     8.46729584633867     7.37730181768955    -2.65997849293778
C   38   6     9.49851939251383    -5.98986489703388     2.66186821906235
C   39   6    -0.43766057044927   -11.21911502893031    -2.66640356176130
C   40   6     9.93693585341292     5.23265163892066    -2.65922260248795
C   41   6    10.62101671050547    -3.64509272167355     2.66337999996200
C   42   6     2.15428778200417   -11.01842611450151    -2.66791534266095
C   43   6   -10.62139465573039     3.64225813248670    -2.66432486302428
C   44   6    -8.46483920237674    -7.37579003678989     2.66753739743604
C   45   6     0.43558187171225    11.22043783721751     2.66262410951217
C   46   6    -9.49870836512628     5.98703030784703    -2.66621458914885
C   47   6    -9.93429023683853    -5.23095088540855     2.66791534266095
C   48   6    -2.15655545335365    11.02050481323853     2.66130130122498
H   49   1    10.16370298836073     0.25681378032839     2.02068414499742
H   50   1     4.85905278409414     8.93141258253185    -2.01766058319812
H   51   1    10.08395654590408     1.30731253297411    -2.01558188446110
H   52   1   -10.16408093358564    -0.25889247906541    -2.01671572013583
H   53   1     6.17260141327932    -8.07971301819038     2.01558188446110
H   54   1    -3.91078821478740    -9.38475787981501    -2.01784955581057
H   55   1     3.90889848866283     9.38532479765238     2.01936133671022
H   56   1    -4.85791894841940    -8.93103463730694     2.02049517238496
H   57   1     5.30465020426659    -8.67157524040416    -2.02276284373444
H   58   1    -6.17222346805440     8.07744534684090    -2.02257387112199
H   59   1   -10.08168887455460    -1.30561177946200     2.02181798067216
H   60   1    -5.30635095777869     8.67346496652872     2.01520393923618
H   61   1     9.20258828140694     9.14684136073227    -3.39130250314446
H   62   1    10.49648375889664    -7.62561183045739     3.39319222926903
H   63   1    -1.35493363131315   -12.90078230718077    -3.39867243503026
H   64   1     3.31873701996116   -12.53908872693901    -3.40169599682957
H   65   1    12.52056941091827    -3.39734962674307     3.39583784584342
H   66   1    11.85255122588452     5.27970581942233    -3.38997969485726
H   67   1    -9.19975369222009    -9.14476266199525     3.40037318854237
H   68   1   -12.52094735614319     3.39375914710639    -3.39602681845587
H   69   1   -10.49648375889664     7.62183237820826    -3.39923935286763
H   70   1     1.35247698735121    12.90248306069287     3.39508195539359
H   71   1   -11.84896074624785    -5.27743814807285     3.40112907899220
H   72   1    -3.32138263653555    12.54154537090095     3.39281428404411
[GTO]
1 0
 s    3 1.00
             71.616837    0.15432897000916
             13.045096    0.53532814003178
             3.5305122     0.4446345400264
 s    3 1.00
             2.9412494  -0.099967230075964
             0.6834831    0.39951283030359
             0.2222899    0.70011547053201
 p    3 1.00
             2.9412494    0.15591627210511
             0.6834831    0.60768372820466
             0.2222899    0.39195739529202

2 0
 s    3 1.00
             71.616837    0.15432897000916
             13.045096    0.53532814003178
             3.5305122     0.4446345400264
 s    3 1.00
             2.9412494  -0.099967230075964
             0.6834831    0.39951283030359
             0.2222899    0.70011547053201
 p    3 1.00
             2.9412494    0.15591627210511
             0.6834831    0.60768372820466
             0.2222899    0.39195739529202

3 0
 s    3 1.00
             71.616837    0.15432897000916
             13.045096    0.53532814003178
             3.5305122     0.4446345400264
 s    3 1.00
             2.9412494  -0.099967230075964
             0.6834831    0.39951283030359
             0.2222899    0.70011547053201
 p    3 1.00
             2.9412494    0.15591627210511
             0.6834831    0.60768372820466
             0.2222899    0.39195739529202

4 0
 s    3 1.00
             71.616837    0.15432897000916
             13.045096    0.53532814003178
             3.5305122     0.4446345400264
 s    3 1.00
             2.9412494  -0.099967230075964
             0.6834831    0.39951283030359
             0.2222899    0.70011547053201
 p    3 1.00
             2.9412494    0.15591627210511
             0.6834831    0.60768372820466
             0.2222899    0.39195739529202

5 0
 s    3 1.00
             71.616837    0.15432897000916
             13.045096    0.53532814003178
             3.5305122     0.4446345400264
 s    3 1.00
             2.9412494  -0.099967230075964
             0.6834831    0.39951283030359
             0.2222899    0.70011547053201
 p    3 1.00
             2.9412494    0.15591627210511
             0.6834831    0.60768372820466
             0.2222899    0.39195739529202

6 0
 s    3 1.00
             71.616837    0.15432897000916
             13.045096    0.53532814003178
             3.5305122     0.4446345400264
 s    3 1.00
             2.9412494  -0.099967230075964
             0.6834831    0.39951283030359
             0.2222899    0.70011547053201
 p    3 1.00
             2.9412494    0.15591627210511
             0.6834831    0.60768372820466
             0.2222899    0.39195739529202

7 0
 s    3 1.00
             71.616837    0.15432897000916
             13.045096    0.53532814003178
             3.5305122     0.4446345400264
 s    3 1.00
             2.9412494  -0.099967230075964
             0.6834831    0.39951283030359
             0.2222899    0.70011547053201
 p    3 1.00
             2.9412494    0.15591627210511
             0.6834831    0.60768372820466
             0.2222899    0.39195739529202

8 0
 s    3 1.00
             71.616837    0.15432897000916
             13.045096    0.53532814003178
             3.5305122     0.4446345400264
 s    3 1.00
             2.9412494  -0.099967230075964
             0.6834831    0.39951283030359
             0.2222899    0.70011547053201
 p    3 1.00
             2.9412494    0.15591627210511
             0.6834831    0.60768372820466
             0.2222899    0.39195739529202

9 0
 s    3 1.00
             71.616837    0.15432897000916
             13.045096    0.53532814003178
             3.5305122     0.4446345400264
 s    3 1.00
             2.9412494  -0.099967230075964
             0.6834831    0.39951283030359
             0.2222899    0.70011547053201
 p    3 1.00
             2.9412494    0.15591627210511
             0.6834831    0.60768372820466
             0.2222899    0.39195739529202

10 0
 s    3 1.00
             71.616837    0.15432897000916
             13.045096    0.53532814003178
             3.5305122     0.4446345400264
 s    3 1.00
             2.9412494  -0.099967230075964
             0.6834831    0.39951283030359
             0.2222899    0.70011547053201
 p    3 1.00
             2.9412494    0.15591627210511
             0.6834831    0.60768372820466
             0.2222899    0.39195739529202

11 0
 s    3 1.00
             71.616837    0.15432897000916
             13.045096    0.53532814003178
             3.5305122     0.4446345400264
 s    3 1.00
             2.9412494  -0.099967230075964
             0.6834831    0.39951283030359
             0.2222899    0.70011547053201
 p    3 1.00
             2.9412494    0.15591627210511
             0.6834831    0.60768372820466
             0.2222899    0.39195739529202

12 0
 s    3 1.00
             71.616837    0.15432897000916
             13.045096    0.53532814003178
             3.5305122     0.4446345400264
 s    3 1.00
             2.9412494  -0.099967230075964
             0.6834831    0.39951283030359
             0.2222899    0.70011547053201
 p    3 1.00
             2.9412494    0.15591627210511
             0.6834831    0.60768372820466
             0.2222899    0.39195739529202

13 0
 s    3 1.00
             71.616837    0.15432897000916
             13.045096    0.53532814003178
             3.5305122     0.4446345400264
 s    3 1.00
             2.9412494  -0.099967230075964
             0.6834831    0.39951283030359
             0.2222899    0.70011547053201
 p    3 1.00
             2.9412494    0.15591627210511
             0.6834831    0.60768372820466
             0.2222899    0.39195739529202

14 0
 s    3 1.00
             71.616837    0.15432897000916
             13.045096    0.53532814003178
             3.5305122     0.4446345400264
 s    3 1.00
             2.9412494  -0.099967230075964
             0.6834831    0.39951283030359
             0.2222899    0.70011547053201
 p    3 1.00
             2.9412494    0.15591627210511
             0.6834831    0.60768372820466
             0.2222899    0.39195739529202

15 0
 s    3 1.00
             71.616837    0.15432897000916
             13.045096    0.53532814003178
             3.5305122     0.4446345400264
 s    3 1.00
             2.9412494  -0.099967230075964
             0.6834831    0.39951283030359
             0.2222899    0.70011547053201
 p    3 1.00
             2.9412494    0.15591627210511
             0.6834831    0.60768372820466
             0.2222899    0.39195739529202

16 0
 s    3 1.00
             71.616837    0.15432897000916
             13.045096    0.53532814003178
             3.5305122     0.4446345400264
 s    3 1.00
             2.9412494  -0.099967230075964
             0.6834831    0.39951283030359
             0.2222899    0.70011547053201
 p    3 1.00
             2.9412494    0.15591627210511
             0.6834831    0.60768372820466
             0.2222899    0.39195739529202

17 0
 s    3 1.00
             71.616837    0.15432897000916
             13.045096    0.53532814003178
             3.5305122     0.4446345400264
 s    3 1.00
             2.9412494  -0.099967230075964
             0.6834831    0.39951283030359
             0.2222899    0.70011547053201
 p    3 1.00
             2.9412494    0.15591627210511
             0.6834831    0.60768372820466
             0.2222899    0.39195739529202

18 0
 s    3 1.00
             71.616837    0.15432897000916
             13.045096    0.53532814003178
             3.5305122     0.4446345400264
 s    3 1.00
             2.9412494  -0.099967230075964
             0.6834831    0.39951283030359
             0.2222899    0.70011547053201
 p    3 1.00
             2.9412494    0.15591627210511
             0.6834831    0.60768372820466
             0.2222899    0.39195739529202

19 0
 s    3 1.00
             71.616837    0.15432897000916
             13.045096    0.53532814003178
             3.5305122     0.4446345400264
 s    3 1.00
             2.9412494  -0.099967230075964
             0.6834831    0.39951283030359
             0.2222899    0.70011547053201
 p    3 1.00
             2.9412494    0.15591627210511
             0.6834831    0.60768372820466
             0.2222899    0.39195739529202

20 0
 s    3 1.00
             71.616837    0.15432897000916
             13.045096    0.53532814003178
             3.5305122     0.4446345400264
 s    3 1.00
             2.9412494  -0.099967230075964
             0.6834831    0.39951283030359
             0.2222899    0.70011547053201
 p    3 1.00
             2.9412494    0.15591627210511
             0.6834831    0.60768372820466
             0.2222899    0.39195739529202

21 0
 s    3 1.00
             71.616837    0.15432897000916
             13.045096    0.53532814003178
             3.5305122     0.4446345400264
 s    3 1.00
             2.9412494  -0.099967230075964
             0.6834831    0.39951283030359
             0.2222899    0.70011547053201
 p    3 1.00
             2.9412494    0.15591627210511
             0.6834831    0.60768372820466
             0.2222899    0.39195739529202

22 0
 s    3 1.00
             71.616837    0.15432897000916
             13.045096    0.53532814003178
             3.5305122     0.4446345400264
 s    3 1.00
             2.9412494  -0.099967230075964
             0.6834831    0.39951283030359
             0.2222899    0.70011547053201
 p    3 1.00
             2.9412494    0.15591627210511
             0.6834831    0.60768372820466
             0.2222899    0.39195739529202

23 0
 s    3 1.00
             71.616837    0.15432897000916
             13.045096    0.53532814003178
             3.5305122     0.4446345400264
 s    3 1.00
             2.9412494  -0.099967230075964
             0.6834831    0.39951283030359
             0.2222899    0.70011547053201
 p    3 1.00
             2.9412494    0.15591627210511
             0.6834831    0.60768372820466
             0.2222899    0.39195739529202

24 0
 s    3 1.00
             71.616837    0.15432897000916
             13.045096    0.53532814003178
             3.5305122     0.4446345400264
 s    3 1.00
             2.9412494  -0.099967230075964
             0.6834831    0.39951283030359
             0.2222899    0.70011547053201
 p    3 1.00
             2.9412494    0.15591627210511
             0.6834831    0.60768372820466
             0.2222899    0.39195739529202

25 0
 s    3 1.00
             71.616837    0.15432897000916
             13.045096    0.53532814003178
             3.5305122     0.4446345400264
 s    3 1.00
             2.9412494  -0.099967230075964
             0.6834831    0.39951283030359
             0.2222899    0.70011547053201
 p    3 1.00
             2.9412494    0.15591627210511
             0.6834831    0.60768372820466
             0.2222899    0.39195739529202

26 0
 s    3 1.00
             71.616837    0.15432897000916
             13.045096    0.53532814003178
             3.5305122     0.4446345400264
 s    3 1.00
             2.9412494  -0.099967230075964
             0.6834831    0.39951283030359
             0.2222899    0.70011547053201
 p    3 1.00
             2.9412494    0.15591627210511
             0.6834831    0.60768372820466
             0.2222899    0.39195739529202

27 0
 s    3 1.00
             71.616837    0.15432897000916
             13.045096    0.53532814003178
             3.5305122     0.4446345400264
 s    3 1.00
             2.9412494  -0.099967230075964
             0.6834831    0.39951283030359
             0.2222899    0.70011547053201
 p    3 1.00
             2.9412494    0.15591627210511
             0.6834831    0.60768372820466
             0.2222899    0.39195739529202

28 0
 s    3 1.00
             71.616837    0.15432897000916
             13.045096    0.53532814003178
             3.5305122     0.4446345400264
 s    3 1.00
             2.9412494  -0.099967230075964
             0.6834831    0.39951283030359
             0.2222899    0.70011547053201
 p    3 1.00
             2.9412494    0.15591627210511
             0.6834831    0.60768372820466
             0.2222899    0.39195739529202

29 0
 s    3 1.00
             71.616837    0.15432897000916
             13.045096    0.53532814003178
             3.5305122     0.4446345400264
 s    3 1.00
             2.9412494  -0.099967230075964
             0.6834831    0.39951283030359
             0.2222899    0.70011547053201
 p    3 1.00
             2.9412494    0.15591627210511
             0.6834831    0.60768372820466
             0.2222899    0.39195739529202

30 0
 s    3 1.00
             71.616837    0.15432897000916
             13.045096    0.53532814003178
             3.5305122     0.4446345400264
 s    3 1.00
             2.9412494  -0.099967230075964
             0.6834831    0.39951283030359
             0.2222899    0.70011547053201
 p    3 1.00
             2.9412494    0.15591627210511
             0.6834831    0.60768372820466
             0.2222899    0.39195739529202

31 0
 s    3 1.00
             71.616837    0.15432897000916
             13.045096    0.53532814003178
             3.5305122     0.4446345400264
 s    3 1.00
             2.9412494  -0.099967230075964
             0.6834831    0.39951283030359
             0.2222899    0.70011547053201
 p    3 1.00
             2.9412494    0.15591627210511
             0.6834831    0.60768372820466
             0.2222899    0.39195739529202

32 0
 s    3 1.00
             71.616837    0.15432897000916
             13.045096    0.53532814003178
             3.5305122     0.4446345400264
 s    3 1.00
             2.9412494  -0.099967230075964
             0.6834831    0.39951283030359
             0.2222899    0.70011547053201
 p    3 1.00
             2.9412494    0.15591627210511
             0.6834831    0.60768372820466
             0.2222899    0.39195739529202

33 0
 s    3 1.00
             71.616837    0.15432897000916
             13.045096    0.53532814003178
             3.5305122     0.4446345400264
 s    3 1.00
             2.9412494  -0.099967230075964
             0.6834831    0.39951283030359
             0.2222899    0.70011547053201
 p    3 1.00
             2.9412494    0.15591627210511
             0.6834831    0.60768372820466
             0.2222899    0.39195739529202

34 0
 s    3 1.00
             71.616837    0.15432897000916
             13.045096    0.53532814003178
             3.5305122     0.4446345400264
 s    3 1.00
             2.9412494  -0.099967230075964
             0.6834831    0.39951283030359
             0.2222899    0.70011547053201
 p    3 1.00
             2.9412494    0.15591627210511
             0.6834831    0.60768372820466
             0.2222899    0.39195739529202

35 0
 s    3 1.00
             71.616837    0.15432897000916
             13.045096    0.53532814003178
             3.5305122     0.4446345400264
 s    3 1.00
             2.9412494  -0.099967230075964
             0.6834831    0.39951283030359
             0.2222899    0.70011547053201
 p    3 1.00
             2.9412494    0.15591627210511
             0.6834831    0.60768372820466
             0.2222899    0.39195739529202

36 0
 s    3 1.00
             71.616837    0.15432897000916
             13.045096    0.53532814003178
             3.5305122     0.4446345400264
 s    3 1.00
             2.9412494  -0.099967230075964
             0.6834831    0.39951283030359
             0.2222899    0.70011547053201
 p    3 1.00
             2.9412494    0.15591627210511
             0.6834831    0.60768372820466
             0.2222899    0.39195739529202

37 0
 s    3 1.00
             71.616837    0.15432897000916
             13.045096    0.53532814003178
             3.5305122     0.4446345400264
 s    3 1.00
             2.9412494  -0.099967230075964
             0.6834831    0.39951283030359
             0.2222899    0.70011547053201
 p    3 1.00
             2.9412494    0.15591627210511
             0.6834831    0.60768372820466
             0.2222899    0.39195739529202

38 0
 s    3 1.00
             71.616837    0.15432897000916
             13.045096    0.53532814003178
             3.5305122     0.4446345400264
 s    3 1.00
             2.9412494  -0.099967230075964
             0.6834831    0.39951283030359
             0.2222899    0.70011547053201
 p    3 1.00
             2.9412494    0.15591627210511
             0.6834831    0.60768372820466
             0.2222899    0.39195739529202

39 0
 s    3 1.00
             71.616837    0.15432897000916
             13.045096    0.53532814003178
             3.5305122     0.4446345400264
 s    3 1.00
             2.9412494  -0.099967230075964
             0.6834831    0.39951283030359
             0.2222899    0.70011547053201
 p    3 1.00
             2.9412494    0.15591627210511
             0.6834831    0.60768372820466
             0.2222899    0.39195739529202

40 0
 s    3 1.00
             71.616837    0.15432897000916
             13.045096    0.53532814003178
             3.5305122     0.4446345400264
 s    3 1.00
             2.9412494  -0.099967230075964
             0.6834831    0.39951283030359
             0.2222899    0.70011547053201
 p    3 1.00
             2.9412494    0.15591627210511
             0.6834831    0.60768372820466
             0.2222899    0.39195739529202

41 0
 s    3 1.00
             71.616837    0.15432897000916
             13.045096    0.53532814003178
             3.5305122     0.4446345400264
 s    3 1.00
             2.9412494  -0.099967230075964
             0.6834831    0.39951283030359
             0.2222899    0.70011547053201
 p    3 1.00
             2.9412494    0.15591627210511
             0.6834831    0.60768372820466
             0.2222899    0.39195739529202

42 0
 s    3 1.00
             71.616837    0.15432897000916
             13.045096    0.53532814003178
             3.5305122     0.4446345400264
 s    3 1.00
             2.9412494  -0.099967230075964
             0.6834831    0.39951283030359
             0.2222899    0.70011547053201
 p    3 1.00
             2.9412494    0.15591627210511
             0.6834831    0.60768372820466
             0.2222899    0.39195739529202

43 0
 s    3 1.00
             71.616837    0.15432897000916
             13.045096    0.53532814003178
             3.5305122     0.4446345400264
 s    3 1.00
             2.9412494  -0.099967230075964
             0.6834831    0.39951283030359
             0.2222899    0.70011547053201
 p    3 1.00
             2.9412494    0.15591627210511
             0.6834831    0.60768372820466
             0.2222899    0.39195739529202

44 0
 s    3 1.00
             71.616837    0.15432897000916
             13.045096    0.53532814003178
             3.5305122     0.4446345400264
 s    3 1.00
             2.9412494  -0.099967230075964
             0.6834831    0.39951283030359
             0.2222899    0.70011547053201
 p    3 1.00
             2.9412494    0.15591627210511
             0.6834831    0.60768372820466
             0.2222899    0.39195739529202

45 0
 s    3 1.00
             71.616837    0.15432897000916
             13.045096    0.53532814003178
             3.5305122     0.4446345400264
 s    3 1.00
             2.9412494  -0.099967230075964
             0.6834831    0.39951283030359
             0.2222899    0.70011547053201
 p    3 1.00
             2.9412494    0.15591627210511
             0.6834831    0.60768372820466
             0.2222899    0.39195739529202

46 0
 s    3 1.00
             71.616837    0.15432897000916
             13.045096    0.53532814003178
             3.5305122     0.4446345400264
 s    3 1.00
             2.9412494  -0.099967230075964
             0.6834831    0.39951283030359
             0.2222899    0.70011547053201
 p    3 1.00
             2.9412494    0.15591627210511
             0.6834831    0.60768372820466
             0.2222899    0.39195739529202

47 0
 s    3 1.00
             71.616837    0.15432897000916
             13.045096    0.53532814003178
             3.5305122     0.4446345400264
 s    3 1.00
             2.9412494  -0.099967230075964
             0.6834831    0.39951283030359
             0.2222899    0.70011547053201
 p    3 1.00
             2.9412494    0.15591627210511
             0.6834831    0.60768372820466
             0.2222899    0.39195739529202

48 0
 s    3 1.00
             71.616837    0.15432897000916
             13.045096    0.53532814003178
             3.5305122     0.4446345400264
 s    3 1.00
             2.9412494  -0.099967230075964
             0.6834831    0.39951283030359
             0.2222899    0.70011547053201
 p    3 1.00
             2.9412494    0.15591627210511
             0.6834831    0.60768372820466
             0.2222899    0.39195739529202

49 0
 s    3 1.00
            3.42525091    0.15432897070298
            0.62391373    0.53532814243847
             0.1688554    0.44463454202535

50 0
 s    3 1.00
            3.42525091    0.15432897070298
            0.62391373    0.53532814243847
             0.1688554    0.44463454202535

51 0
 s    3 1.00
            3.42525091    0.15432897070298
            0.62391373    0.53532814243847
             0.1688554    0.44463454202535

52 0
 s    3 1.00
            3.42525091    0.15432897070298
            0.62391373    0.53532814243847
             0.1688554    0.44463454202535

53 0
 s    3 1.00
            3.42525091    0.15432897070298
            0.62391373    0.53532814243847
             0.1688554    0.44463454202535

54 0
 s    3 1.00
            3.42525091    0.15432897070298
            0.62391373    0.53532814243847
             0.1688554    0.44463454202535

55 0
 s    3 1.00
            3.42525091    0.15432897070298
            0.62391373    0.53532814243847
             0.1688554    0.44463454202535

56 0
 s    3 1.00
            3.42525091    0.15432897070298
            0.62391373    0.53532814243847
             0.1688554    0.44463454202535

57 0
 s    3 1.00
            3.42525091    0.15432897070298
            0.62391373    0.53532814243847
             0.1688554    0.44463454202535

58 0
 s    3 1.00
            3.42525091    0.15432897070298
            0.62391373    0.53532814243847
             0.1688554    0.44463454202535

59 0
 s    3 1.00
            3.42525091    0.15432897070298
            0.62391373    0.53532814243847
             0.1688554    0.44463454202535

60 0
 s    3 1.00
            3.42525091    0.15432897070298
            0.62391373    0.53532814243847
             0.1688554    0.44463454202535

61 0
 s    3 1.00
            3.42525091    0.15432897070298
            0.62391373    0.53532814243847
             0.1688554    0.44463454202535

62 0
 s    3 1.00
            3.42525091    0.15432897070298
            0.62391373    0.53532814243847
             0.1688554    0.44463454202535

63 0
 s    3 1.00
            3.42525091    0.15432897070298
            0.62391373    0.53532814243847
             0.1688554    0.44463454202535

64 0
 s    3 1.00
            3.42525091    0.15432897070298
            0.62391373    0.53532814243847
             0.1688554    0.44463454202535

65 0
 s    3 1.00
            3.42525091    0.15432897070298
            0.62391373    0.53532814243847
             0.1688554    0.44463454202535

66 0
 s    3 1.00
            3.42525091    0.15432897070298
            0.62391373    0.53532814243847
             0.1688554    0.44463454202535

67 0
 s    3 1.00
            3.42525091    0.15432897070298
            0.62391373    0.53532814243847
             0.1688554    0.44463454202535

68 0
 s    3 1.00
            3.42525091    0.15432897070298
            0.62391373    0.53532814243847
             0.1688554    0.44463454202535

69 0
 s    3 1.00
            3.42525091    0.15432897070298
            0.62391373    0.53532814243847
             0.1688554    0.44463454202535

70 0
 s    3 1.00
            3.42525091    0.15432897070298
            0.62391373    0.53532814243847
             0.1688554    0.44463454202535

71 0
 s    3 1.00
            3.42525091    0.15432897070298
            0.62391373    0.53532814243847
             0.1688554    0.44463454202535

72 0
 s    3 1.00
            3.42525091    0.15432897070298
            0.62391373    0.53532814243847
             0.1688554    0.44463454202535

[5d]
[7f]
[9g]

[MO]
 Sym= A
 Ene=               0
 Spin= Alpha
 Occup=    1.00000
   1    9.394077460566e-05
   2    -0.00036998549138924
   3    0.00098196697516681
   4    -0.022862099968993
   5      0.91469245485725
   6    0.0004982580785367
   7    0.0045778571679856
   8    0.0086461362218619
   9     -0.06421630848757